45
Step: 0.0, Time: 0.00 ps
C -4.6155712792 1.7930706953 -7.03e-08
C -4.4144168546 3.1750304396 -1.421e-07
C -3.1177397098 3.701720546 -2.92e-08
C -2.028209214 2.8238774858 1.36e-08
C -2.2304807613 1.4432470786 7.85e-08
C -3.5242465633 0.9273413296 4.94e-08
H -5.2771929804 3.836355768 -2.732e-07
H -1.0158071028 3.2186822564 -1.3e-09
H -1.3806685632 0.7686528649 1.358e-07
H -5.6256228348 1.3919655977 -1.248e-07
H -3.6808111918 -0.1479382416 9.52e-08
C -2.8800900706 5.1822929546 -2.862e-07
H -3.8214292471 5.7408670374 9.756e-07
H -2.3158925749 5.4729996366 -0.892168236
H -2.315890317 5.4729996165 0.8921662473
H 3.8734075366 3.8688507687 0.8925
C 1.7951075366 1.5553507687 0.0
C 3.3132075366 3.5720507687 0.0
C 3.0894075366 2.0890507687 0.0
C 3.9903075366 -0.1649492313 0.0
C 2.6982075366 -0.6868492313 0.0
C 4.1856075366 1.2170507687 0.0
C 1.6012075366 0.1727507687 0.0
H 0.9283075366 2.2120507687 0.0
H 5.1990075366 1.6119507687 0.0
H 0.5931075366 -0.2332492313 0.0
H 4.8466075366 -0.8340492313 0.0
H 2.3661075366 4.1215507687 0.0
H 2.5461075366 -1.7627492313 0.0
H 3.8734075366 3.8688507687 -0.8925
H 4.68279 4.91862 4.60649
C 2.60449 2.60512 3.71399
C 4.12259 4.62182 3.71399
C 3.89879 3.13882 3.71399
C 4.79969 0.88482 3.71399
C 3.50759 0.36292 3.71399
C 4.99499 2.26682 3.71399
C 2.41059 1.22252 3.71399
H 1.73769 3.26182 3.71399
H 6.00839 2.66172 3.71399
H 1.40249 0.81652 3.71399
H 5.65599 0.21572 3.71399
H 3.17549 5.17132 3.71399
H 3.35549 -0.71298 3.71399
H 4.68279 4.91862 2.82149
45
Step: 100.0, Time: 0.00 ps
C -4.6729221545122215 1.86564857906988 0.09832225252003197
C -4.444391745095003 3.1979594028506892 0.218448101336191
C -3.236005918601524 3.772408364656117 0.06974042421381885
C -2.266436573971794 2.8462635899081894 0.026444630430697107
C -2.411205819410742 1.532677381936973 -0.04176347702571333
C -3.644513613121938 1.0404419226390176 -0.10302642158534127
H -5.327707014348 3.8335259362641985 0.36127835431655425
H -1.1940245858260827 3.1890814459486703 -0.01642286543180582
H -1.5020567752591771 0.8762806553366544 -0.0236056591340578
H -5.726912610507369 1.511405724622139 0.023070758569916642
H -3.9012069933045783 -0.015870061554567622 -0.2516415238591718
C -2.985733842586128 5.151506466667725 -0.08933217043602357
H -3.9230938888883764 5.747249128865731 -0.12444676254340468
H -2.464299448736383 5.300977518544642 -1.0536040469304913
H -2.3095002399056637 5.5795836338228835 0.6865703231441643
H 4.120009571886445 3.8355858617199448 0.3231580559414727
C 1.9739122512741318 1.3857042139425313 -0.03242334323295671
C 3.308745897048277 3.4334450157803538 -0.3007087248791712
C 3.192011623238823 2.0319563712544046 -0.06812746300827446
C 4.11883115389841 -0.1745311743059254 0.20453405841727182
C 2.922557041849538 -0.7444294325622969 -0.011502370350515281
C 4.2101659746927 1.1885529716842138 0.12682590939575786
C 1.7893416094810946 0.05804696519267419 -0.06367987183186674
H 1.1148637212944388 2.0676813832889342 -0.10845035050371278
H 5.199827032564128 1.6351020334588358 0.2579337975401862
H 0.7976499732362189 -0.42834454366775404 -0.05067361957555805
H 5.041458099287625 -0.743953274863119 0.4706031813848897
H 2.351067524924311 3.912382126278108 -0.05793252195263781
H 2.9384499836165836 -1.8370418307554257 -0.058787854836894325
H 3.5247036843144404 3.6053980064067837 -1.3654312084935651
H 4.47805551348977 4.723412693114485 4.987825793692244
C 2.707172126661495 2.65204342545313 3.7112047214543527
C 4.155197498896895 4.534300629695149 3.96636033666677
C 3.9513599112407145 3.1608156834976473 3.807555413511251
C 4.7294011138647996 0.9239710232051604 3.566858064224652
C 3.473866231919379 0.5053342065501246 3.6355610703170296
C 4.90157616896969 2.241337562311633 3.63541908913899
C 2.450122896376376 1.3580134011134788 3.6816389756325663
H 1.8555438066688965 3.2840230763120393 3.877758182276791
H 5.950960842566134 2.468597447035057 3.5125093730105155
H 1.4056113484264405 0.9643777223131056 3.6667931300244243
H 5.523096579665102 0.21202632864234786 3.4220484477962954
H 3.2239351382656625 5.126153443120944 3.7839199789824596
H 3.2224048433211587 -0.5720857685226024 3.6467529483610113
H 4.941840604450187 4.8405686253066 3.247929355068681
45
Step: 200.0, Time: 0.01 ps
C -4.789263321222429 2.005059771098267 0.24220708637138852
C -4.615198683099444 3.337316158070016 0.011219876992761385
C -3.349349420015946 3.7595396186206265 -0.055302386321522665
C -2.3422299270148246 2.8625844293001785 -0.1837702027010237
C -2.645162533631582 1.5810933641109863 -0.12864369917270643
C -3.844287800375601 1.0771629812154482 0.17485675987314286
H -5.526608095727639 3.987138654649292 -0.036950813762758244
H -1.3303209344358589 3.364474290174314 -0.3129019840879873
H -1.8954784743011477 0.7490518423791043 -0.25881699567332245
H -5.839823467125646 1.6514463676605147 0.50711966359261
H -4.008416900687438 -0.02874312989185796 0.30817422508246983
C -3.0990209660283647 5.1513377084930445 0.01378142152005556
H -4.006635079955761 5.772675869171032 0.20197807385886782
H -2.5964224081609117 5.677367284783317 -0.8503321832732497
H -2.43031046846841 5.455635226389795 0.8530336315816192
H 4.2694133685829065 3.6742181564688123 0.003086093348597684
C 2.114334905030682 1.176718917000023 -0.31708474680641235
C 3.2977353456337894 3.263528051516054 -0.3309208722201624
C 3.261000298496392 1.8750866066727157 -0.19261626122246872
C 4.2754344565652325 -0.15599138621059008 0.09420583450739616
C 3.1669397847954737 -0.8034888787067452 0.25613184752188917
C 4.389358157035574 1.1933747364375356 -0.06654935202967269
C 2.0691232767355277 -0.08027402527357234 0.020300327639502704
H 1.0803896401041504 1.6057015117896218 -0.4538370492108439
H 5.395320798992547 1.661398923816558 -0.02753942513150972
H 1.1566875945055353 -0.7322283423232785 0.05543652650661617
H 5.223192073681369 -0.7818888739101831 0.20852259616786445
H 2.5046309727993075 3.8384374210546186 0.18508650275428398
H 3.0524789657784615 -1.8554924021705643 0.61361575807558
H 3.2467100191696208 3.5415102473778846 -1.4028583028534627
H 4.439893733814021 4.884789303632012 5.034008929716222
C 2.641621458335611 2.8049631338258494 3.9334516489204057
C 4.32639558686577 4.479813197553213 3.985919375539042
C 3.944112531865395 3.142702326413963 3.8792417048201457
C 4.651396605579649 0.960419073276223 3.6248207698167194
C 3.3880766458041243 0.5383351984819919 3.5256558492025403
C 4.961268640742582 2.2794664508067792 3.7374316171947757
C 2.4335184357624087 1.4879089591835069 3.723220953220545
H 1.8870370816491173 3.5698100125073173 3.944581332235367
H 5.96794277241158 2.68022371333441 3.8710906186968956
H 1.3482585049182332 1.1512912115958795 3.7818891604838596
H 5.402688633622816 0.1751793929675859 3.566048600575239
H 3.5615927782779444 5.145263350156086 3.566331195266206
H 3.0897183793019747 -0.5366330753704391 3.390266120955562
H 5.248695883209057 4.763117883466031 3.4349747715987164
45
Step: 300.0, Time: 0.01 ps
C -5.035466925387026 2.082794189268828 0.22691772529771245
C -4.707327689376668 3.403853468746008 0.2088793169242069
C -3.468699921569522 3.787281020674196 -0.0749456376840735
C -2.526788544666065 2.856741194456884 -0.2954183408062561
C -2.695135498264623 1.5799379194410705 -0.023280750359748057
C -4.007038074171172 1.212494685809539 0.17874974174812322
H -5.412377563659447 4.25545877278773 0.4400417803388782
H -1.5353020554294567 3.2962715197203893 -0.6193550994868199
H -1.798282977556494 0.9448931776853312 -0.20370175024650486
H -6.121332994621847 1.7352462811489302 0.3230187176330916
H -4.2414482333122665 0.10925482339344106 0.27179269214154284
C -3.1172920543909166 5.212356146277134 -0.11265669296702109
H -3.9276434225994032 5.988267659799334 -0.18240608084350787
H -2.4296955488735197 5.481957230586104 -0.944656117141971
H -2.5078008849766267 5.61484340154262 0.745948949625076
H 4.178160849173814 3.748085734725251 -0.28706978648651205
C 2.181906930422624 0.9934995108770267 -0.18440870522039896
C 3.2667830187934683 3.1354251203781085 -0.48526043671529384
C 3.34298985104291 1.6970967777161186 -0.30975039988862274
C 4.550879450522763 -0.20264363828148382 0.06045211683526762
C 3.38099333076914 -0.9320534712349122 0.1926176167261372
C 4.524199946754328 1.0847567774351063 -0.3056379837989575
C 2.1558917709205936 -0.3346427440632035 0.014599384751970024
H 1.292368895304786 1.6942429642058239 -0.1794185804863107
H 5.386197279625169 1.8056651360828018 -0.4227665369455615
H 1.1460186766945304 -0.839239213626579 0.14708106094527854
H 5.592449286976861 -0.6195957357582103 0.25283540281727424
H 2.550682195355815 3.6440307378289862 0.20931719370539922
H 3.469464069513714 -2.0373852786886157 0.4631957486488938
H 2.9484885187836065 3.5316453524370814 -1.4692119253363654
H 4.3142688037508945 5.007977963583613 5.043004469488644
C 2.7452995432235507 2.9183700685901064 3.821702635898071
C 4.403341537998842 4.619475961189224 3.9896844859303164
C 4.046580613957385 3.2207946031705332 3.886333264736892
C 4.618046586176469 0.9250425221402443 3.765550465547659
C 3.2757353741481 0.6703590973524173 3.771154820429851
C 4.92110037128599 2.212178400971746 3.804261841823265
C 2.3337723229178 1.6517173150894073 3.85604950943975
H 2.1135199605437256 3.793162535963491 3.9002833468219396
H 5.992541218319436 2.522506351212801 3.7939301988357155
H 1.230272490530439 1.4011203356961113 3.813726704547128
H 5.39925776461995 0.11204873524336481 3.777857131876838
H 3.8164504425622487 5.398261720687588 3.4353868440653326
H 2.900308355483669 -0.37748163491962516 3.759274895060111
H 5.453263961053376 4.891632657175752 3.7356545357345023
45
Step: 400.0, Time: 0.02 ps
C -5.067696381347742 2.2046701048457207 0.4431206609577169
C -4.762873209867093 3.485386075139565 0.3085319752211306
C -3.4915091809822147 3.8282313498964586 0.012753390198313517
C -2.513068826090631 2.8210340519949355 -0.08123008973193015
C -2.938532135876943 1.5678695898526218 -0.16665391316619524
C -4.209621398133882 1.2776323362032154 0.07329959760631428
H -5.644179445266066 4.181975720157933 0.3390650173948662
H -1.4389084200638786 3.044418458942961 -0.2598559106051705
H -2.1947400906935943 0.7787951966709031 -0.3398331754313541
H -6.117850660842524 1.8482152111555568 0.6562324357558372
H -4.566372444361806 0.23569317765840125 -0.027541535371177966
C -3.1684213653345843 5.252084756660379 -0.2954447441034724
H -3.9792177372455955 5.743275737981566 -0.8514992585660349
H -2.25194451808739 5.508824398768027 -0.8727793635641612
H -3.1253916374298756 5.9187663103957675 0.6068457585025588
H 4.158446044279544 3.5508378087715604 -0.9232154051467147
C 2.255464032912845 0.7741749486236653 -0.019458678329436502
C 3.2067703572853707 3.0022820499049816 -0.6856903834094779
C 3.328666090280179 1.5686149026793836 -0.2842646720595882
C 4.706733073556188 -0.26741472770662583 -0.08377540705537546
C 3.612385283833307 -1.0074374222565643 0.011387674935860478
C 4.603605116399037 1.0308065496013914 -0.199265845535822
C 2.3901429995844383 -0.5523794939520954 0.19485880129960945
H 1.2322978721056872 1.213679439817213 -0.09981409522371158
H 5.526699971837187 1.6761678963798063 -0.32208701594545197
H 1.4994321897219762 -1.1713527109796882 0.46971586662660564
H 5.676540731082394 -0.8232396109035538 -0.10373956902791813
H 2.7576867118136033 3.786962102489396 -0.03855495832778238
H 3.834608699031099 -2.1145607349482476 0.11079674794563767
H 2.6910114591026915 3.1639031016968255 -1.6628786518724845
H 4.40631244179477 5.382891202736991 4.78173777441852
C 2.7058404465369534 3.0674001772766775 3.7865007432285953
C 4.598391101770568 4.720996839094855 3.897840958116903
C 4.04954257639325 3.339416082723364 3.824100038955829
C 4.478672289041479 0.9908757332802163 3.896934970437997
C 3.176795533926816 0.7731676617946487 3.9124627937661876
C 4.919313609903847 2.2672428966862115 3.815982172186539
C 2.3246522663535716 1.7689548599443905 3.8240226396897534
H 1.8571746894768548 3.751334957174763 3.7886808884823653
H 6.040472626256921 2.3591857218158045 3.713929870084556
H 1.2503633094592126 1.5069730623659923 3.8792889521721445
H 5.209527415887334 0.12782377194036806 3.76651158844023
H 4.278638582450948 5.412079820717203 3.061029174756708
H 2.7746436800922334 -0.24932779265647012 3.9483648557332187
H 5.718535044769281 4.879690159379928 3.795637725601765
45
Step: 500.0, Time: 0.02 ps
C -5.1447286592556125 2.2387175672324875 0.46123915000139715
C -4.806183373694582 3.5312099022024266 0.3249535944834061
C -3.558483833956943 3.888048457871448 -0.026441252103718043
C -2.7288522729654368 2.8818283345814746 -0.3236433063737982
C -3.0382473430238117 1.577004411615677 -0.11541680586908946
C -4.290324334142305 1.2334432007074274 0.27779462693929496
H -5.530022250509463 4.36556667834143 0.372275084011354
H -1.7436620250897399 3.2065500374351865 -0.6593809126233348
H -2.277023662460021 0.8379774041415612 -0.3186752439952872
H -6.207645296942086 2.08310162877874 0.7079182818182862
H -4.470987714743618 0.18499481100436962 0.49213914589793073
C -3.1211313722682545 5.2438969758865275 -0.06708141124706055
H -3.3714373912600317 5.734341340468106 -1.0364782039599574
H -2.0220019655675032 5.2613714354258985 -0.016053977431733337
H -3.5358882495283983 5.84555943510481 0.738375495356622
H 3.9300140474216794 3.509427810949063 -0.9864954082884171
C 2.386724786593281 0.6570523826343543 -0.03854920841499896
C 3.1005123290686445 2.892905785077583 -0.601053137139095
C 3.3993015573953733 1.5047024753063554 -0.29966765372821813
C 4.804771794111449 -0.35644664657617664 -0.11610027005934767
C 3.7692036834619382 -1.1471431863576589 0.24769716022923244
C 4.621242179910055 0.9165434280420193 -0.4254553878530245
C 2.5747639779607208 -0.6315554677241714 0.28318115075068395
H 1.3969810215185947 1.1126900436153542 0.050090618360115725
H 5.500557421087551 1.4894433743821918 -0.8150512302664591
H 1.6611044727842759 -1.2282046306270742 0.39573595292158903
H 5.77234083501911 -0.8407701621894675 -0.2398578995243359
H 2.801205934352807 3.4440038294688864 0.33987276314200954
H 3.88582901352144 -2.2230051007152123 0.4411232673377049
H 2.2971526142210625 2.993029752327485 -1.3659662015990541
H 4.241166463577342 5.373880625918922 4.504857801599084
C 2.8444470479417636 3.163889465867802 3.7426815733946186
C 4.606369204615136 4.752374344791132 3.6138360327079515
C 4.147349156788051 3.429361613843919 3.7957218377342747
C 4.402750337642415 1.0459693847465346 3.904802829331279
C 3.0583967747172602 0.8251221750887121 3.825416402364677
C 4.881175586414647 2.3128831357570103 3.8983490380703176
C 2.303178713760001 1.9490819903846204 3.7825763841443765
H 2.226443282157483 4.063992487196704 3.5712307284330285
H 5.988037058664483 2.555194841774314 3.9256963211129308
H 1.2222633746404818 1.861531989805935 3.766043142342141
H 5.191076404266919 0.2305320444268878 3.9992584991009306
H 4.276992540290474 5.292826672588696 2.705631724473138
H 2.6640235302590405 -0.2102378522699833 3.7449606162036457
H 5.698561319678616 4.887822064283814 3.665131601755598
45
Step: 600.0, Time: 0.03 ps
C -5.235466824978026 2.295527105371848 0.5837659082573713
C -4.828318868235575 3.5935187993033755 0.49606482112152883
C -3.5776730243930897 3.9033400829661655 0.05221905618243262
C -2.7526062608263957 2.883631488961334 -0.3175566679708807
C -3.1323978664367282 1.5987623086742588 -0.11011152464127592
C -4.365211053055976 1.2531529956426748 0.2799467282248805
H -5.360872279795151 4.449497087139008 0.9079536938542352
H -1.7742981164792533 3.0502589602918864 -0.7485739650184338
H -2.444364178954086 0.8097692481442422 -0.4533798748387772
H -6.2476623920543215 2.0763785560032018 0.9110762188919854
H -4.7865994493598425 0.22968143025591306 0.31276780982256414
C -3.149516070720265 5.296665472531176 0.00110797925358387
H -2.782503971133688 5.52974951941453 -0.9893835215519682
H -2.343145205989413 5.441717560436443 0.7260322485054598
H -4.027691888667036 5.910752659379664 0.27185326943723953
H 4.00301804542185 3.2544268887857077 -1.0024408005496714
C 2.3922705315846597 0.5200750008452495 0.07544930377033247
C 3.118438547989753 2.7569702348879312 -0.5154757083099848
C 3.3040265775812174 1.3355444070719855 -0.3593380767418922
C 4.926838459830668 -0.3548656848885953 -0.15673231139376168
C 4.003140268172157 -1.272352041673491 0.37689165227948834
C 4.567960406682598 0.8529027908683541 -0.6280273692161392
C 2.735542030883662 -0.7806089003999506 0.39770621124576244
H 1.3805916571080477 0.934769668314018 0.09385764758463862
H 5.2771151490758985 1.5048042948207665 -1.15110889046838
H 1.8712026595635587 -1.3695813826067167 0.7625249758538254
H 5.947505028490438 -0.6358813900492162 -0.3439547278607939
H 3.022340871611489 3.1637933290443367 0.4915384259384605
H 4.200302482501385 -2.302733518336239 0.6448871737495454
H 2.2359783803528703 2.9218726814390066 -1.157678873646062
H 4.372542382648822 5.467739865817407 4.34541908187055
C 2.761700778698717 3.3197885164790812 3.5732090825741913
C 4.710285549713031 4.741409455764586 3.5799420476247352
C 4.088749688532227 3.464467717071642 3.6178383248946346
C 4.370959780431072 1.1826670687996137 3.9188791956222566
C 3.062301402677099 0.9531507034120825 3.7583318354452526
C 4.898945551439359 2.4077253646547967 3.8220467636530753
C 2.2752792529744696 2.0310979906785263 3.653370903167775
H 2.056656524623644 4.192080170459537 3.4507671630417214
H 6.00121845581034 2.543238407571908 3.960165361774184
H 1.2508072360304208 1.7838367956390393 3.3614874792939142
H 5.052109226997754 0.321247629671065 4.099373984367453
H 4.545283684853311 5.170823780597608 2.5678359089634286
H 2.680104303455881 -0.09243037290601966 3.8060129931444537
H 5.821472038644002 4.652101285675792 3.6332741898576115
45
Step: 700.0, Time: 0.03 ps
C -5.233026746253211 2.320520665066258 0.7738792377814213
C -4.868349601222073 3.5837590162086586 0.6645073179217565
C -3.588917963873266 3.9124772940579944 0.20640411769348696
C -2.7623798873820844 2.9141517003247026 -0.14952205234234292
C -3.222226011927373 1.6501780635655532 -0.3153627035234212
C -4.448075798254948 1.408736214572722 0.18643524814420143
H -5.658582267058141 4.311100509462248 0.853348865057858
H -1.729292995545267 3.0768255220473235 -0.48775359122710815
H -2.6977660170890054 0.7375568741886284 -0.7059283088250556
H -6.192768112802661 2.056167208194777 1.2245933679353609
H -4.915651402396175 0.3864109284383837 0.16143725340938866
C -3.192595694531623 5.307536195684577 -0.020343167141529783
H -2.331176499753104 5.2261976471424765 -0.6855205259994408
H -2.9186350596077126 5.813055016285368 0.9187677104840436
H -4.0579168094984865 5.805588067352326 -0.446681793550568
H 3.5298919489062532 3.025502248052267 -1.4373724150525427
C 2.5258430459341588 0.3750077726641207 0.31934403263271904
C 2.9042310356377 2.549554794719173 -0.6925983004289358
C 3.3914165061114625 1.2537591628616467 -0.2634398256476282
C 5.029429139070496 -0.44343598195986855 -0.2753816987434556
C 4.077869435169458 -1.2746611010743831 0.20212427573611783
C 4.701436382516578 0.8343945171974059 -0.40159306724911303
C 2.9388261614824485 -0.8474916066709517 0.6809894468070817
H 1.4519865151106228 0.6357896858647129 0.45053261289877417
H 5.51085733043163 1.4595145584014544 -0.7935444795625282
H 2.2237728785152484 -1.6035445365953174 1.0955421512376056
H 5.9729930231936486 -0.9067231119045086 -0.5638512040719842
H 2.876568263131488 3.1381996915376438 0.24842227762511357
H 4.3792521795195265 -2.3474102508540025 0.21158202983264202
H 1.9033770591352401 2.3896579230788646 -1.1226911216340794
H 4.076624006683053 5.350872723255981 4.2277063889150135
C 2.8011678533791837 3.33716215365597 3.3825733579303026
C 4.66553598523823 4.804391973849966 3.495906201333476
C 4.135265841629674 3.479306366780201 3.5776785542428433
C 4.3622121851706135 1.1895596820878962 3.845832881351421
C 2.992082818750532 1.1731996064309067 3.775819195472759
C 4.931454313519114 2.3688853656797733 3.7116426289028794
C 2.1680914595684344 2.185164087051325 3.4674465214908685
H 2.132744660935013 4.205908439669584 3.144727877856017
H 6.024384720607124 2.446760608116381 3.731799804635502
H 1.0585083649649694 2.089731537346392 3.5136379158872217
H 4.9272673100038595 0.26489968394600233 3.92587067938222
H 4.5735466554073225 5.269093450374751 2.492158883905005
H 2.5263897489145055 0.17331119800505168 3.801237427431925
H 5.712047867216806 4.834677161424631 3.835625548647585
45
Step: 800.0, Time: 0.04 ps
C -5.297053081420796 2.393351486883637 0.7302062771595826
C -4.813391055761162 3.6292136970125926 0.8014669002422454
C -3.616345147848664 3.9358129893967893 0.17841590514961975
C -2.9148820781249443 2.9535050765100888 -0.41079033621410915
C -3.246679609200493 1.6501962404847434 -0.15833461417833675
C -4.443933089856479 1.3771977087214649 0.2832349076328892
H -5.336797261613241 4.508754158337387 1.2393277380474121
H -1.9156719857065656 3.1965533919156517 -0.8608890301004135
H -2.493839897208547 0.8581525479776779 -0.48983723014579034
H -6.365720656817508 2.2445838471776085 1.0255958359969584
H -4.71704393852752 0.29308475495829556 0.3828498981363381
C -3.218691972801089 5.339195924601491 0.19180080408260067
H -2.1033585590501724 5.431649097575997 0.17352766848706486
H -3.558345515921232 5.763100748560564 1.1378697508533215
H -3.7389998146043943 5.905616912020621 -0.5827553536682121
H 3.5101603431601873 2.787992335428179 -1.4763982216163298
C 2.566108805120794 0.19950471122536334 0.3741157123972793
C 2.8586508817330953 2.4124826547698976 -0.6587706647673462
C 3.3461687000506988 1.102657272834212 -0.24082051530505438
C 5.2134781331957925 -0.41567892860270517 -0.1837401874996263
C 4.355611536053883 -1.3045492977472213 0.366730441646777
C 4.65679450211617 0.7465662837524147 -0.5719550171427105
C 3.0405537293300204 -1.0566300188884936 0.6165664454334456
H 1.4986758574906758 0.47933265798717745 0.6046861533199599
H 5.213968886869482 1.5405279384231605 -1.1253449909645656
H 2.3517421718586435 -1.8934539496127156 0.9035199507876472
H 6.264548080433371 -0.6725308791375589 -0.438026377274199
H 2.8510248931567688 3.1452336543339725 0.1520906733136982
H 4.696449080826591 -2.3890397176942524 0.5071883510215115
H 1.8497338778637404 2.3345143623641627 -1.0771766110117218
H 4.331102104267395 5.698972120315986 4.017393471141308
C 2.701268897104904 3.448889872231005 3.3490360638435117
C 4.752390128031322 4.879350371107371 3.4126924050307235
C 4.068062458051677 3.564652937253339 3.4338058412613206
C 4.297386623070149 1.2784058974550188 3.7604976395398504
C 2.928920890606552 1.1617885360231013 3.707261912180961
C 4.888971128217872 2.4878062655386373 3.656884430949286
C 2.091403791294619 2.2094890173606196 3.500663984106539
H 2.1636363895155597 4.415748718363195 3.175374769053347
H 5.972962933941139 2.6005637712425655 3.6129203689732545
H 0.9771842935637819 2.0999885766900697 3.3002575379363703
H 4.906171705746427 0.39491546477030903 3.8204065211487785
H 4.847006687245003 5.194135770493286 2.380018248517887
H 2.498633298942038 0.15592418472405228 3.859116614322317
H 5.788783290135811 4.755204439578675 3.741636859929619
45
Step: 900.0, Time: 0.04 ps
C -5.177898364758132 2.337826891964933 0.8841661960361215
C -4.950848714707616 3.6364824920181706 0.7164541452868052
C -3.716262755219459 3.9822121964068686 0.2653028426429817
C -2.934136205653125 3.0361784441779434 -0.22722380593755212
C -3.3209780281060217 1.7518823253501659 -0.25804397357772796
C -4.4282766765362105 1.35511117801239 0.3739293629046836
H -5.5737725931578055 4.470020142499822 1.160794248006917
H -1.9878369879061173 3.4216958609986 -0.7144266377755311
H -2.617284712674675 1.044429893027987 -0.7812703447025122
H -6.084070235045662 2.000864418547136 1.4989421713951654
H -4.747183419285291 0.30691389234003497 0.44866279525386504
C -3.2162747056912697 5.317816079992516 0.2906371538289793
H -2.393270265647617 5.434905232556622 0.9796631023438997
H -3.8934260238601657 6.17923978960304 0.5337178673253403
H -2.7941174267929445 5.590246039773074 -0.7033479128039266
H 3.2406636811498624 2.842625987548916 -1.3798729467336348
C 2.5957352823128366 -0.022254290458229596 0.09492153785415768
C 2.8328323584406365 2.2440170208740193 -0.5546641764110445
C 3.4288164780844474 0.9761180570172656 -0.3358451857450494
C 5.2795069283536495 -0.42310687646184847 -0.1575717197276072
C 4.536653594240597 -1.3112757836848474 0.5778869621502075
C 4.710082614641999 0.7162099046936513 -0.5552229524728142
C 3.21072570447007 -1.1046402437620073 0.5899047947644678
H 1.479381717308668 0.07437211664259345 0.1088297743949592
H 5.222942449513793 1.492045315781575 -1.2037386851330942
H 2.5783647353940626 -1.8303764806531357 1.1208039654259305
H 6.356105890749516 -0.6128036405311224 -0.4593768814023033
H 2.8668406095144645 2.908396039800461 0.3294913773915732
H 4.938206248338751 -2.254599659000304 1.0832525504742654
H 1.7263625482350646 2.245305162398843 -0.6906619293380101
H 4.120736783617916 5.65943383976974 3.741952883653753
C 2.7711516096550755 3.4659210843874133 3.4321307087259556
C 4.683656596305697 4.944976811564839 3.137077760214791
C 4.106963811641002 3.6646588045326247 3.3819686962690234
C 4.126970082124457 1.3741299485175424 3.701126740577575
C 2.8252863103346457 1.1850125101230762 3.6357109392191
C 4.781050473553009 2.525444383872305 3.5760843972389167
C 2.118719700560545 2.3133147586471123 3.5181143781105035
H 2.185011676710046 4.419977143600615 3.2874099265837944
H 5.871265256105012 2.5302136530181962 3.7153020866766444
H 0.9887903659722146 2.301852449981099 3.3536823330005605
H 4.624399080898163 0.4503488541051954 3.8866291039553085
H 4.683212261809059 5.297768118433607 2.104954468057145
H 2.397493184010326 0.15218741972473315 3.576769297639288
H 5.704053341270114 5.069480681233193 3.54132803367686
45
Step: 1000.0, Time: 0.05 ps
C -5.242734839229259 2.3813058141222223 0.9070693600419104
C -4.82095711589056 3.6228718906862496 0.9474054580251692
C -3.6734721434383513 3.9874387592600034 0.39100063111649674
C -2.9299985390044876 3.003727841548139 -0.13638964898662137
C -3.3097822251182123 1.7302653575415035 -0.11377042492609533
C -4.499596907986545 1.4141468232454208 0.36116461493541946
H -5.590720572809606 4.3090396081597975 1.4181020026700484
H -1.931144935227086 3.307478347047591 -0.5918974609273576
H -2.654841093635482 0.9601211122052898 -0.5312814130700877
H -6.271764778151396 2.068689540281235 1.3138803152679206
H -4.890015133966685 0.39898551709864666 0.2872675635825091
C -3.397849153271715 5.4245316034045 0.2424307163334165
H -3.4676833467547645 6.071788600880354 1.1496092168155576
H -4.10955389757587 5.9601394994944945 -0.3869053412347652
H -2.438075989710282 5.731488300459657 -0.20254544928665813
H 3.2086113987799996 2.3672736821029066 -1.7746152777165782
C 2.7321900999996407 -0.10927185255254718 0.21835716170566788
C 2.8168686164489376 2.058023015010506 -0.7840390523890276
C 3.4287972104702975 0.8982924283044378 -0.2616827265981246
C 5.339966861494727 -0.40465106884127106 0.05992701059604044
C 4.644895898307654 -1.436455229455438 0.3760189964173299
C 4.753139637558802 0.7475192838545273 -0.20722239239965345
C 3.3213147393016875 -1.2656111744599656 0.5580711612674839
H 1.6452140997905114 -0.05662923060886795 0.3586418451615976
H 5.4354783480692825 1.5839175837858244 -0.510758674358828
H 2.770980228194717 -2.1325615781759253 0.9305449974673228
H 6.487626430313681 -0.4278865047693363 0.053893241581427956
H 2.895519108603338 2.9882686957654414 -0.15923962464652938
H 5.147193149169175 -2.3992779721307564 0.688935981772521
H 1.716623045836961 2.077420555417177 -0.8607247259586641
H 4.351605266771038 5.920061279023577 3.453109803155104
C 2.6895492058697217 3.555290125984711 3.312591993294922
C 4.710494555877131 4.977151009170492 3.01044657574077
C 4.045533324925973 3.726634186398589 3.240987756916836
C 4.090183221792325 1.4108370594271054 3.5363695312761774
C 2.7713374388968512 1.252771537207375 3.653199110989748
C 4.7366597680028795 2.6176669081016257 3.419573684720563
C 2.0756186590751478 2.375465043294808 3.4795520270084768
H 2.0140071895533556 4.44102074034557 3.04595930348646
H 5.847534940225684 2.592503171687296 3.260549342343393
H 0.9558405057085552 2.4786293903744747 3.545650051235115
H 4.772244683333974 0.5927165627954025 3.54145293640312
H 4.7751280392774245 5.134724872396399 1.9089648927670295
H 2.212330942969098 0.30354443447553464 3.7878203934596453
H 5.764360300276968 4.989571306495211 3.284380460496807
45
Step: 1100.0, Time: 0.05 ps
C -5.3169098202435485 2.320713310510069 1.052482700297117
C -4.986847288048096 3.6622927409889887 0.9901554363531545
C -3.8117553982755057 4.012429554155538 0.42141607659640334
C -2.9921337481704047 3.0287894997923304 -0.0994458988008758
C -3.251144188710688 1.7326116453369145 -0.005964085456105071
C -4.484196964043852 1.3793935575037135 0.5343103064926131
H -5.717506300576765 4.423226792214091 1.375543521037087
H -2.0238088575147994 3.3723366978750136 -0.5549061654913495
H -2.4826829672095085 1.0518080106892687 -0.3571537352268559
H -6.35371995832858 2.023839859741627 1.4113476063500625
H -4.675772379451719 0.29151434878795235 0.6159587433835417
C -3.341390891247377 5.442505155858518 0.29172360262278546
H -3.930542551283632 6.235741118167725 0.7864129543878088
H -3.2946734113255998 5.8919584131999745 -0.7197931101963959
H -2.3179017998911045 5.640687987596159 0.6575503245160973
H 3.1016935558617655 2.2965199073143236 -1.739993203254233
C 2.7422911838441095 -0.2611543251543402 0.1480473690948352
C 2.800987542855701 2.088815182101666 -0.6806688853599879
C 3.4800087983974803 0.8651409034237101 -0.214508934413154
C 5.485790793255463 -0.3341425254261349 0.31205367171354687
C 4.733710434175701 -1.480723958838387 0.5442706209003109
C 4.848760697871207 0.7760204103546564 -0.12082942686527562
C 3.396540869415631 -1.4204210302870626 0.42324125239656346
H 1.6480866049706895 -0.16513484118736943 0.16655131895536157
H 5.348572296589578 1.7550580827432571 -0.1491821068729954
H 2.7404484370947158 -2.275932388412733 0.6802605937527784
H 6.601633856580274 -0.33217533194109 0.5356611064220111
H 2.902243217600211 3.0635720552745407 -0.1605515669638318