6
 energy: -8.083755062573 gnorm: 0.230939996490 xtb: 6.5.1 (conda-forge)
C            0.00000000000000        0.00000000000000        0.00000000000000
O            1.42835000000000        0.00000000000000        0.00000000000000
H            0.00000000000000        1.08580000000000        0.00000000000000
H            0.00000000000000        0.00000000000000        1.08580000000000
H            0.00000000000000       -1.08580000000000        0.00000000000000
H            1.42835000000000        0.00000000000000        1.08580000000000
6
 energy: -8.097249327772 gnorm: 0.153184891227 xtb: 6.5.1 (conda-forge)
C           -0.04902080477235        0.00000001472952       -0.04330155778403
O            1.47940634446566       -0.00000000053880        0.02472028497258
H            0.02525516596152        1.08358202874138        0.04584436284042
H           -0.18088007075237       -0.00000000085895        1.07735703831576
H            0.02525516664337       -1.08358204209362        0.04584436367890
H            1.55668419845418        0.00000000002047        1.02113550797636
6
 energy: -8.129691660095 gnorm: 0.166311271048 xtb: 6.5.1 (conda-forge)
C           -0.04638453735861       -0.00000000016701       -0.01186094337406
O            1.55623308676511        0.00000000316130        0.08823857378681
H           -0.03461275254487        1.07691736556464       -0.01553850130913
H           -0.32086473977424        0.00000000123376        1.13806764023107
H           -0.03461275034778       -1.07691736496121       -0.01553849771140
H            1.73694169326039       -0.00000000483149        0.98823172837671
6
 energy: -8.160471022768 gnorm: 0.147541934576 xtb: 6.5.1 (conda-forge)
C           -0.03685897589196       -0.00000001479797        0.05150350812822
O            1.56831990690870       -0.00000000277680        0.11139550621159
H           -0.08350122091217        1.06706034923863       -0.09986184099776
H           -0.36664433689271       -0.00000000162166        1.18545126513697
H           -0.08350122548442       -1.06706033629473       -0.09986184562863
H            1.85888585227257        0.00000000625253        1.02297340714960
6
 energy: -8.202095647421 gnorm: 0.096657378649 xtb: 6.5.1 (conda-forge)
C            0.02458617594220       -0.00000003292828        0.21320625666803
O            1.57690099970976       -0.00000000544171        0.15869702396206
H           -0.16885299746751        1.03012936243306       -0.25673250454193
H           -0.34871191600910        0.00000000195670        1.26095719228701
H           -0.16885301126481       -1.03012934194989       -0.25673252242876
H            1.94163074908946        0.00000001593012        1.05220455405359
6
 energy: -8.215566124890 gnorm: 0.073645540622 xtb: 6.5.1 (conda-forge)
C            0.07717709788921       -0.00000003342815        0.24852534157771
O            1.55789503701426       -0.00000000540935        0.17079497205934
H           -0.20503659795356        0.96994690440015       -0.28438476383213
H           -0.30561161156917       -0.00000000003062        1.25146122367883
H           -0.20503661658784       -0.96994688510674       -0.28438478337622
H            1.93731269120710        0.00000001957471        1.06958800989247
6
 energy: -8.223040555817 gnorm: 0.021936650114 xtb: 6.5.1 (conda-forge)
C            0.13787052505280       -0.00000001648061        0.23804777857530
O            1.53577934524636       -0.00000004350193        0.17374217988688
H           -0.22595484702277        0.89399886644166       -0.27232977961051
H           -0.26794347966479       -0.00000002643610        1.23535159074279
H           -0.22595491166362       -0.89399887266349       -0.27232984581488
H            1.90290336805203        0.00000009264047        1.06911807622042
6
 energy: -8.223495246226 gnorm: 0.007068500277 xtb: 6.5.1 (conda-forge)
C            0.13643234855660       -0.00000001373224        0.23632835094572
O            1.54644210604973        0.00000001123415        0.18346902368802
H           -0.23682775395696        0.89106412168647       -0.28176849039712
H           -0.26262656655718        0.00000001416767        1.24643006472704
H           -0.23682772632222       -0.89106410111458       -0.28176847232333
H            1.91010759223002       -0.00000003224147        1.06890952335968
6
 energy: -8.223546740876 gnorm: 0.002583601636 xtb: 6.5.1 (conda-forge)
C            0.13373393537856       -0.00000001418257        0.23180336252531
O            1.54636470684250       -0.00000004612510        0.18568920754625
H           -0.23898573993221        0.88895939260833       -0.28319708600963
H           -0.25666513287769       -0.00000002832367        1.24842124203044
H           -0.23898582101531       -0.88895941173967       -0.28319716544863
H            1.91123805160416        0.00000010776267        1.07208043935625
6
 energy: -8.223559016825 gnorm: 0.001593492710 xtb: 6.5.1 (conda-forge)
C            0.13410816823918       -0.00000001059670        0.23173075493364
O            1.54613773059897        0.00000003502108        0.18535619358006
H           -0.23967749170775        0.88795302079234       -0.28482437568271
H           -0.25227964044446        0.00000003244067        1.25080864107781
H           -0.23967742644737       -0.88795299302680       -0.28482432349280
H            1.90808865976144       -0.00000008463057        1.07335310958399
6
 energy: -8.223562631188 gnorm: 0.000515344970 xtb: 6.5.1 (conda-forge)
C            0.13415827089796       -0.00000002208881        0.23136153443939
O            1.54649124054397       -0.00000002446781        0.18342677712968
H           -0.23936466453128        0.88826041089070       -0.28508850535541
H           -0.24842803028577       -0.00000001824977        1.25248855563507
H           -0.23936485660493       -0.88826051656224       -0.28508865758358
H            1.90320803998005        0.00000017047794        1.07450029573484
