6
 energy: -8.223562631222 gnorm: 0.000514232551 xtb: 6.5.1 (conda-forge)
C            0.13415827089796       -0.00000002208881        0.23136153443939
O            1.54649124054397       -0.00000002446781        0.18342677712968
H           -0.23936466453128        0.88826041089070       -0.28508850535541
H           -0.24842803028577       -0.00000001824977        1.25248855563507
H           -0.23936485660493       -0.88826051656224       -0.28508865758358
H            1.90320803998005        0.00000017047794        1.07450029573484
