20
Lattice="10.000000 0.000000 0.000000 0.000000 10.000000 0.000000 0.000000 0.000000 10.000000" Properties=species:S:1:pos:R:3:dft_forces:R:3 dft_energy=-10506.41732321
C 5.07454 3.32369 4.66725 0.48904 -1.06700 2.99476
C 5.83199 4.39192 6.37393 0.86071 1.26402 -0.82985
C 6.41923 5.58382 5.88481 1.63492 -3.24020 3.66021
C 5.89806 6.37056 4.99546 -1.63560 5.77176 -4.56246
C 4.52931 6.35052 4.28349 0.81335 -0.36563 -0.25730
C 3.32149 5.93433 5.04021 1.18586 4.35192 -3.07914
C 3.35692 4.88281 5.71178 -1.55081 -7.18725 7.64845
C 4.54207 3.90127 5.99811 -3.96216 -0.74018 -1.59176
C 5.12230 5.30145 3.33482 -0.88223 11.80486 -3.70503
C 5.36874 4.10728 3.55059 1.58078 -10.49635 1.16667
H 5.44621 2.26621 4.84110 -0.09500 0.90279 -0.80480
H 6.40688 3.74102 6.97512 1.07351 -0.92210 1.02984
H 7.43556 5.83740 6.21937 0.14762 -0.25791 0.06117
H 6.57146 7.23720 4.60063 -0.99142 -1.22678 0.54907
H 4.25670 7.30829 3.78996 0.71277 -0.17351 -0.16976
H 2.50371 6.61347 5.03565 -1.27643 0.71172 -0.04452
H 2.46956 4.57289 6.52088 1.56008 0.93897 -2.26133
H 4.09613 3.08662 6.68373 0.88355 0.85069 -0.82825
H 5.56880 5.81353 2.36754 -0.81864 -0.98287 1.51959
H 5.89404 3.50367 2.80483 0.27011 0.06303 -0.49557
20
Lattice="10.000000 0.000000 0.000000 0.000000 10.000000 0.000000 0.000000 0.000000 10.000000" Properties=species:S:1:pos:R:3:dft_forces:R:3 dft_energy=-10506.46815158
C 4.51223 5.16493 3.46752 4.76219 -2.09244 -8.15190
C 6.24958 5.73469 4.19391 0.88389 0.37918 -1.56106
C 5.96692 6.31834 5.38045 2.29848 5.36131 1.28115
C 5.09144 6.00171 6.35611 -1.20972 -0.90295 2.26891
C 4.38247 4.71108 6.41781 2.70822 -5.56690 2.19679
C 5.13472 3.37105 5.91226 -1.25998 1.90125 3.07874
C 5.89220 3.26280 4.85032 -1.79550 3.76995 -2.39902
C 5.79827 4.41388 3.75589 0.03847 -2.01853 2.43264
C 3.46491 5.24699 5.51373 -4.47260 1.91180 1.16764
C 3.41552 5.31815 4.15257 -3.57534 2.27733 1.11879
H 4.47250 5.34488 2.23019 0.04481 -0.03359 3.07355
H 6.91421 6.30097 3.52585 -0.06019 0.01626 -0.19207
H 6.44204 7.44824 5.53197 -0.98917 -2.57876 -0.45251
H 4.89087 6.54949 7.29899 0.30422 0.65162 -0.64835
H 4.03134 4.39652 7.49402 0.10743 0.89696 -1.72091
H 5.08497 2.57534 6.66162 -0.00054 -0.41236 0.11836
H 6.29774 2.35619 4.58192 1.51035 -2.51792 -0.80353
H 6.38976 4.05007 2.93582 0.03129 -0.04325 -1.26757
H 2.58492 5.73360 5.98949 0.11169 -0.14057 0.09388
H 2.60974 5.98909 3.71158 0.56201 -0.85838 0.36647
20
Lattice="10.000000 0.000000 0.000000 0.000000 10.000000 0.000000 0.000000 0.000000 10.000000" Properties=species:S:1:pos:R:3:dft_forces:R:3 dft_energy=-10505.70095242
C 6.11933 3.85024 4.73870 5.74936 1.24234 -5.98504
C 5.18061 4.95486 3.20941 -2.88344 1.38652 6.45259
C 3.81176 4.94613 3.70946 3.97533 1.72453 -0.10049
C 3.46072 5.34673 5.00642 -7.56826 -2.27350 -3.89472
C 4.17249 5.64998 6.15303 2.09999 1.57221 2.41060
C 5.34729 6.51811 5.94835 -3.03217 3.96111 5.12491
C 6.28285 6.41997 5.09707 -0.24907 -3.36252 -2.20663
C 6.29457 5.22782 4.25454 1.73882 0.06814 -4.32537
C 4.42269 4.21521 6.36143 -2.56347 0.34916 2.42549
C 5.35381 3.51931 5.69588 -2.17958 -8.04428 5.04892
H 6.80398 3.15918 4.15396 -0.81268 0.17574 0.89931
H 5.34930 4.56725 2.29788 1.07636 -1.49960 -3.85562
H 3.11399 4.76758 2.94525 -1.76705 -0.55463 -0.93034
H 2.16437 5.23201 5.09285 3.53127 0.42635 0.18937
H 3.56201 6.10936 6.92465 -0.46361 -0.03292 0.47626
H 5.30714 7.46906 6.63106 0.28157 -1.32322 -0.87990
H 7.07468 7.03171 5.04538 3.23385 2.93543 -0.27481
H 7.22135 5.29637 3.59243 -0.43874 -0.28394 0.77463
H 3.75601 3.69159 7.09978 0.37344 0.33204 -0.58240
H 5.36357 2.26955 5.98631 -0.10193 3.20101 -0.76673
20
Lattice="10.000000 0.000000 0.000000 0.000000 10.000000 0.000000 0.000000 0.000000 10.000000" Properties=species:S:1:pos:R:3:dft_forces:R:3 dft_energy=-10506.73697924
C 4.54030 6.53709 5.61288 -2.43329 -4.09936 -1.07769
C 6.37281 5.77839 5.60355 -1.38333 1.15822 -1.46184
C 6.33935 4.44070 5.88693 2.32886 -4.01585 3.99964
C 5.52482 3.32507 5.54906 -0.50329 6.70389 -3.41748
C 4.41613 3.65418 4.43390 2.25976 -3.14570 -1.19302
C 4.78190 4.48705 3.22338 -1.44393 -4.85938 -1.25634
C 5.28018 5.67542 3.25176 0.05630 1.28002 -1.34332
C 5.49509 6.34746 4.46450 2.53819 6.23106 3.45677
C 3.66291 4.17504 5.50125 -3.99014 0.02727 2.83168
C 3.48591 5.49374 5.90173 3.36329 2.20767 0.64739
H 4.35687 7.48597 6.05854 0.32042 1.29331 0.56147
H 7.11348 6.41339 6.10214 -0.03488 0.16361 -0.06333
H 7.11549 4.14304 6.81806 -1.69925 0.69692 -2.14564
H 5.56720 2.42812 6.01333 0.14799 -3.37400 1.68926
H 4.07208 2.62362 4.12963 -0.16480 0.79393 -0.13631
H 4.62955 3.94184 2.22323 0.12688 0.70122 1.09235
H 5.44792 6.20180 2.33171 0.36739 0.46597 -0.87647
H 5.90409 7.50231 4.29008 -0.66787 -2.61011 0.00258
H 2.91732 3.48293 6.06159 1.15338 0.52871 -0.95522
H 2.97249 5.69335 6.86365 -0.34168 -0.14741 -0.35448
20
Lattice="10.000000 0.000000 0.000000 0.000000 10.000000 0.000000 0.000000 0.000000 10.000000" Properties=species:S:1:pos:R:3:dft_forces:R:3 dft_energy=-10506.74129858
C 4.05727 5.84426 3.83228 2.43253 -2.78338 -3.80869
C 6.15948 5.58500 3.88195 1.29209 0.54326 1.22106
C 6.60613 5.74084 5.18997 0.89113 2.30191 1.05681
C 5.98278 5.23362 6.38278 -0.45172 -0.46709 -2.84678
C 4.83712 4.23286 6.36893 2.06262 -2.89606 4.40334
C 4.78201 3.11445 5.44118 0.95176 2.08112 -7.08055
C 4.90806 3.32068 3.99233 -0.44133 2.04912 6.02775
C 5.08078 4.73133 3.43402 -1.81755 -1.35735 -0.69836
C 3.97178 5.32171 6.25520 -3.37667 6.29713 -0.56431
C 3.57366 6.05778 5.01075 -2.26009 1.29361 6.69836
H 3.81841 6.55164 3.09534 -0.31793 1.12020 -1.76533
H 6.51564 6.22594 3.09066 0.72915 0.57652 -0.33654
H 7.38298 6.66284 5.41872 -1.59897 -2.24407 -0.70985
H 6.43460 5.56642 7.28076 0.15412 0.32596 1.58880
H 4.71554 3.85694 7.50083 0.36916 0.26978 -2.05055
H 4.60051 2.11884 5.64079 -0.46890 -2.58588 1.38708
H 4.75161 2.50130 3.34688 -0.10031 -1.33236 -1.12700
H 5.13212 4.61401 2.33172 -0.18876 0.26843 0.03651
H 3.55137 5.88254 7.20920 0.78805 -1.37484 -1.52615
H 2.89078 7.03949 5.12977 1.35163 -2.08599 0.09437
20
Lattice="10.000000 0.000000 0.000000 0.000000 10.000000 0.000000 0.000000 0.000000 10.000000" Properties=species:S:1:pos:R:3:dft_forces:R:3 dft_energy=-10507.16469178
C 3.97119 6.43489 4.86259 1.06500 -3.18284 -0.26294
C 5.95965 6.28229 4.84192 1.83140 4.42843 -0.68781
C 6.54785 5.48449 5.78433 -2.13525 -4.50372 1.18095
C 5.99671 4.17202 6.10849 2.14051 2.17431 0.30160
C 4.93380 3.48024 5.38494 -0.35783 -0.81945 -2.49056
C 4.88784 3.56790 3.84500 0.33148 -0.97555 1.59002
C 4.88552 4.65160 3.10701 0.55023 4.31796 1.04254
C 5.01471 6.12752 3.75266 -2.34115 -8.61156 4.23174
C 3.89281 4.23708 6.10498 0.93423 -1.15938 -0.84533
C 3.41337 5.44395 5.78692 -0.41373 5.05524 0.12407
H 3.64373 7.42941 4.75950 -0.85824 1.71983 0.54628
H 6.49222 7.31805 4.75968 -0.90884 -1.19631 0.33466
H 7.25305 5.82231 6.51535 0.78853 0.77994 0.40738
H 6.39963 3.63600 6.99564 -0.07363 0.29477 -0.16801
H 4.91599 2.42538 5.67329 -0.07656 -0.40264 0.03872
H 4.94574 2.67681 3.24958 -0.13887 -1.34628 -0.10781
H 4.93185 4.63363 2.03254 -0.10786 -0.20703 -0.95189
H 5.01882 6.80074 3.07035 0.27747 5.14828 -5.01974
H 3.53761 3.77117 6.96786 -0.86283 -0.96476 1.93320
H 2.78373 5.92846 6.62150 0.35593 -0.54925 -1.19707
20
Lattice="10.000000 0.000000 0.000000 0.000000 10.000000 0.000000 0.000000 0.000000 10.000000" Properties=species:S:1:pos:R:3:dft_forces:R:3 dft_energy=-10506.87198075
C 3.92611 5.87306 4.02022 0.81356 0.28973 -0.04527
C 5.95949 5.97027 3.97543 -0.85492 -0.69280 0.31985
C 6.40907 5.87814 5.33115 3.82462 4.50965 -3.55363
C 6.20334 5.03842 6.31099 -3.24851 -3.93283 3.78679
C 5.03615 3.92766 6.34708 0.21143 7.20915 -9.93507
C 5.01605 3.07795 5.06672 -0.07296 2.06379 0.04767
C 4.97641 3.57743 3.80390 0.42526 -3.78081 -0.63253
C 4.95399 4.97299 3.41746 0.02289 1.53051 -0.03262
C 4.02419 5.08617 6.35424 0.81755 -3.50713 5.45246
C 3.53169 5.79848 5.35746 -1.47099 1.75262 -1.36898
H 3.49762 6.72431 3.47798 0.07400 -0.13059 -0.52228
H 6.32871 6.72195 3.22778 -0.14260 -0.27114 0.88761
H 7.22322 6.69438 5.57674 -1.38648 -1.04951 -0.31440
H 6.44708 5.21859 7.37072 0.77875 0.41920 -0.22061
H 5.12849 3.33536 7.06472 0.46352 -5.09806 7.53396
H 5.06139 2.03694 5.27757 0.04199 -1.52755 -0.15964
H 5.02999 2.77470 2.91544 -0.18595 1.57659 1.69796
H 4.93331 5.07215 2.35233 -0.02278 0.04697 -1.26590
H 3.67702 5.25416 7.45871 0.25873 0.16457 -1.78866
H 2.82123 6.56537 5.66040 -0.34709 0.42765 0.11329
20
Lattice="10.000000 0.000000 0.000000 0.000000 10.000000 0.000000 0.000000 0.000000 10.000000" Properties=species:S:1:pos:R:3:dft_forces:R:3 dft_energy=-10507.56654451
C 4.76181 3.36222 5.07875 1.51115 -4.88893 -1.99667
C 5.59637 4.49974 6.53469 -2.44507 -0.79094 0.12151
C 6.40098 5.44344 6.04438 0.63304 3.29621 -4.13509
C 6.14190 6.24059 4.82751 0.93089 -2.08813 2.55770
C 4.91734 6.28567 4.06263 -1.65103 1.32195 -0.46476
C 3.66202 6.26164 4.82466 -2.49920 1.16084 -0.57951
C 3.29978 5.30717 5.69183 -0.34013 -0.54370 1.21629
C 4.17767 4.07582 6.11971 -0.86199 6.30947 0.50767
C 5.37218 5.07600 3.37642 -0.03485 -1.63983 0.52873
C 5.22748 3.73236 3.82074 0.79918 -0.38229 -1.16469
H 4.89170 2.26128 5.36406 0.02993 0.91904 -0.61045
H 6.00788 3.93047 7.29459 0.93929 -1.77193 1.98055
H 7.45666 5.50609 6.28851 0.42878 -0.15192 0.72446
H 6.94133 6.79263 4.40252 1.34569 0.75098 -0.32773
H 4.90383 7.17202 3.40596 0.10071 -0.05637 -0.24802
H 2.85845 7.08357 4.54220 1.44832 -1.29317 0.70052
H 2.32240 5.46715 6.23037 0.57480 -0.40632 -0.34216
H 3.65661 3.62460 6.91350 -0.69866 -1.51977 1.19535
H 5.82600 5.19388 2.41904 0.72953 0.31376 -1.08367
H 5.71892 2.90773 3.12611 -0.94037 1.46105 1.41997
20
Lattice="10.000000 0.000000 0.000000 0.000000 10.000000 0.000000 0.000000 0.000000 10.000000" Properties=species:S:1:pos:R:3:dft_forces:R:3 dft_energy=-10507.42980356
C 4.24265 4.35073 6.42450 0.74981 1.70033 -1.42475
C 5.35165 6.16904 6.20743 -2.71845 -1.80517 -1.91094
C 6.37400 5.81933 5.37901 3.58070 4.59743 5.67732
C 6.42439 5.22045 4.24989 0.44028 -3.46477 -6.16160
C 5.24290 4.58059 3.52921 0.22686 1.16930 -0.33173
C 3.97279 5.39377 3.44954 -0.46141 -0.13176 -2.26298
C 3.36105 5.95947 4.48898 1.88267 -0.97322 1.60852
C 3.93883 5.81257 5.91702 -2.04178 0.09111 0.16028
C 5.39133 3.41037 4.43219 0.52382 -0.45770 -3.24315
C 4.94680 3.33163 5.66967 -3.06912 1.79498 4.15866
H 4.15214 4.29204 7.50011 -0.16315 -0.56007 0.68729
H 5.54818 6.61359 7.11076 0.61372 1.29860 2.70975
H 7.34378 6.22839 5.88027 -0.78015 -0.92136 -1.09340
H 7.37515 4.98801 3.73264 0.02507 0.24672 0.31681
H 5.56406 4.37228 2.49956 0.03571 -0.36528 -0.11025
H 3.54260 5.55670 2.37086 0.56641 -0.34676 1.68630
H 2.44592 6.48045 4.38852 -1.33370 0.92404 -0.22994
H 3.22781 6.45454 6.58572 0.95153 -1.39393 -0.48678
H 5.84903 2.50995 4.01929 0.41817 -0.15686 -0.25635
H 5.04780 2.45000 6.26008 0.55301 -1.24563 0.50695
20
Lattice="10.000000 0.000000 0.000000 0.000000 10.000000 0.000000 0.000000 0.000000 10.000000" Properties=species:S:1:pos:R:3:dft_forces:R:3 dft_energy=-10506.33781026
C 5.74550 6.50905 4.44711 -2.98070 -8.90418 0.04913
C 4.52203 6.23806 6.05396 -5.56562 -2.72422 -1.84688
C 3.44294 5.32573 5.65778 -0.68192 5.40094 3.93226
C 3.50596 4.14816 5.09729 -1.56462 -2.48619 -1.11013
C 4.73354 3.58006 4.61962 2.78784 -7.94280 4.52620
C 5.97950 3.51541 5.57114 -0.41912 -1.75418 -0.72481
C 6.51115 4.59703 6.09916 -0.39385 2.55760 0.67173
C 5.83794 5.99925 5.88736 7.46693 -2.62406 -1.57200
C 4.78346 4.30156 3.47492 0.45127 4.97184 -6.50596
C 5.24250 5.64920 3.34535 0.43257 0.73844 1.34841
H 5.94026 7.43093 4.25120 1.32650 6.75600 -1.23465
H 4.29435 7.12460 6.50369 -1.31054 2.91175 1.40073
H 2.42904 5.69704 5.99775 0.66636 -0.18256 -0.55222
H 2.57017 3.64573 4.81188 -0.07109 -0.09723 0.05668
H 4.60292 2.39472 4.41095 -0.11132 2.25062 0.09639
H 6.49996 2.52180 5.81068 -0.85141 0.85458 -0.55270
H 7.39374 4.56486 6.77257 -0.14838 -0.02978 -0.22378
H 6.50745 6.68701 6.36417 0.40527 0.93310 0.95295
H 4.26331 3.92353 2.54287 0.47948 0.09826 0.73397
H 5.09947 6.21705 2.38006 0.08236 -0.72791 0.55468
20
Lattice="10.000000 0.000000 0.000000 0.000000 10.000000 0.000000 0.000000 0.000000 10.000000" Properties=species:S:1:pos:R:3:dft_forces:R:3 dft_energy=-10506.63806429
C 5.10229 3.24743 4.67799 0.81003 -0.17435 -1.29808
C 5.83387 4.43041 6.51131 -1.52786 -0.25450 -0.88093
C 6.40838 5.53423 5.98933 -0.27360 2.16213 -1.53973
C 5.87376 6.44616 4.91173 1.59012 -0.23099 0.50653
C 4.52510 6.35213 4.21772 -0.88836 3.41184 -0.22997
C 3.30054 5.98849 4.96798 2.25429 -5.30427 2.69227
C 3.27788 4.81545 5.80049 -2.66253 3.17107 -1.77180
C 4.47893 3.90266 5.98378 0.67165 -2.89860 0.70701
C 5.21622 5.48560 3.28512 1.91329 -4.07975 -1.13319
C 5.45115 3.94990 3.51028 -1.36782 3.70767 0.68990
H 5.52032 2.17220 4.64593 -0.84797 1.17283 0.65441
H 6.49591 3.82535 7.14525 -0.46607 -0.35220 0.28363
H 7.40473 5.68194 6.44139 0.14845 0.73052 -0.57615
H 6.50008 7.39699 4.71385 -0.79852 -1.40805 0.04275
H 4.27976 7.35554 3.66024 0.62379 -1.23365 0.90867
H 2.45323 6.58802 4.95961 -2.04384 1.42546 -0.30850
H 2.09514 4.66654 6.17143 3.33169 -0.34361 -0.27160
H 4.24272 3.01509 6.72531 -0.09106 1.33681 -1.34818
H 5.48358 5.74188 2.15823 -0.36946 0.19665 2.32072
H 5.98344 3.63628 2.59430 -0.00623 -1.03501 0.55225
20
Lattice="10.000000 0.000000 0.000000 0.000000 10.000000 0.000000 0.000000 0.000000 10.000000" Properties=species:S:1:pos:R:3:dft_forces:R:3 dft_energy=-10507.25059756
C 4.05996 5.82907 3.81236 0.43146 -0.11141 -3.16573
C 6.18106 5.56646 3.88446 0.52331 0.36719 1.02549
C 6.60502 5.72259 5.18613 1.37804 2.46040 1.26184
C 5.97963 5.23645 6.37626 0.18498 -0.07589 -1.20624
C 4.84217 4.24060 6.38509 1.55177 -2.73589 2.77595
C 4.79979 3.12984 5.41053 0.10613 -0.30368 -5.03250
C 4.90127 3.31488 3.98852 0.12425 4.24894 6.80830
C 5.07942 4.72881 3.44758 -1.49176 -1.24337 -1.95385
C 3.97253 5.35021 6.25880 -2.64965 4.74546 -0.83069
C 3.57438 6.06253 5.02637 -1.60956 1.22413 4.23917
H 3.72710 6.61904 3.06520 0.66653 -1.07948 0.10282
H 6.45035 6.24262 3.09556 1.02933 0.70972 -0.43585
H 7.39758 6.61736 5.40453 -1.56345 -2.01906 -0.60756
H 6.46163 5.58116 7.29877 -0.43588 -0.10734 0.37372
H 4.71997 3.84238 7.46661 0.29809 0.20164 -1.33106
H 4.57013 2.07425 5.61620 0.07460 0.04568 0.89077
H 4.74626 2.49861 3.42310 -0.47710 -3.19987 -2.73953
H 5.16917 4.66783 2.32478 -0.35931 -0.06145 0.53520
H 3.50254 5.84172 7.17928 0.67338 -0.82332 -0.76836
H 2.86447 7.04144 5.13522 1.54485 -2.24239 0.05812
20
Lattice="10.000000 0.000000 0.000000 0.000000 10.000000 0.000000 0.000000 0.000000 10.000000" Properties=species:S:1:pos:R:3:dft_forces:R:3 dft_energy=-10507.34810402
C 3.99759 6.41886 4.85788 1.16658 -0.86619 0.14657
C 5.94843 6.38340 4.92408 0.06036 0.39728 0.00983
C 6.58333 5.36338 5.81420 -0.47382 4.37211 -2.03522
C 6.14896 4.15931 6.10581 -2.42737 -3.18849 -1.00816
C 4.92448 3.46434 5.33012 0.52254 0.45850 1.96605
C 4.86275 3.52409 3.80507 0.54827 3.69549 -0.10902
C 4.92146 4.78401 3.11115 -0.22861 -5.79521 1.47220
C 4.93750 6.07211 3.74816 1.11315 -0.72092 3.55129
C 3.83406 4.19696 6.12647 -0.44145 3.34252 -3.07955
C 3.36723 5.54336 5.75483 0.39464 -3.26939 2.55290
H 3.55825 7.38991 4.91090 -0.02758 1.41609 -0.37442
H 6.34975 7.48634 5.00722 -0.70972 -1.95866 -0.32874
H 7.46108 5.64403 6.38381 0.36284 0.91810 0.39682
H 6.63130 3.76144 7.00399 -0.18440 -1.04436 -0.02984
H 4.90899 2.40759 5.67593 0.01433 0.08246 -0.23743
H 4.79972 2.54046 3.32151 0.06753 0.15290 -0.47123
H 4.95910 4.64576 2.03363 -0.10021 0.49530 -0.61568
H 4.96205 6.81869 3.06121 0.19598 2.84114 -2.48163
H 3.31056 3.64374 6.86553 -0.67732 -0.61254 1.19122
H 2.55482 6.03040 6.39446 0.82426 -0.71613 -0.51594
20
Lattice="10.000000 0.000000 0.000000 0.000000 10.000000 0.000000 0.000000 0.000000 10.000000" Properties=species:S:1:pos:R:3:dft_forces:R:3 dft_energy=-10507.01844555
C 3.91258 6.47326 4.78487 1.86452 -2.03545 -0.14592
C 5.95265 6.35658 4.86993 1.09134 0.89461 1.05831
C 6.61383 5.45591 5.87817 -2.93903 1.52906 -2.67778
C 6.13750 4.19524 6.11202 -1.20093 -2.41706 0.33396
C 4.93566 3.41727 5.38424 0.81027 1.24677 0.05567
C 4.91276 3.48523 3.87480 -0.12863 2.64324 -2.06611
C 4.84891 4.70675 3.08826 0.51736 -4.30930 3.06233
C 4.95551 6.03891 3.71889 -0.36720 -2.16301 5.18170
C 3.82654 4.17425 6.07343 0.29541 4.07312 -2.47320
C 3.43817 5.59162 5.74857 0.08522 -3.97262 2.63721
H 3.59202 7.47197 4.95830 -0.11377 1.52578 -0.45719
H 6.25773 7.50667 5.02379 -0.64052 -2.32277 -0.73445
H 7.26395 5.98171 6.55782 0.64222 0.10917 0.58666
H 6.46671 3.58584 6.99085 0.15866 0.53968 -0.28357
H 4.89946 2.32094 5.64586 0.31295 0.78051 0.24180
H 4.93988 2.43887 3.47393 -0.17398 0.85465 -0.64751
H 4.78820 4.66518 2.00326 -0.01197 -0.15539 -0.44231
H 5.04813 6.74276 3.03656 0.45968 3.97230 -3.86949
H 3.35958 3.71304 6.89799 -0.79086 -0.60263 1.51095
H 2.81528 6.01761 6.59040 0.12927 -0.19066 -0.87105
20
Lattice="10.000000 0.000000 0.000000 0.000000 10.000000 0.000000 0.000000 0.000000 10.000000" Properties=species:S:1:pos:R:3:dft_forces:R:3 dft_energy=-10506.39152550
C 5.09762 3.27967 4.73400 1.14710 -1.13313 -2.34133
C 5.86921 4.43622 6.41932 -1.13712 -0.77038 -0.40172
C 6.46514 5.54563 5.92733 -0.57585 2.48788 -2.24648
C 5.85829 6.46647 4.88406 3.08676 -0.49323 0.12134
C 4.50218 6.34744 4.23232 -0.24079 2.84648 -1.31022
C 3.33453 5.96487 5.00913 -0.06476 -3.91181 3.68751
C 3.37376 4.82743 5.88963 -5.14315 4.61580 -1.03420
C 4.47820 3.92627 5.95309 2.92724 -2.97767 2.30395
C 5.03839 5.40899 3.27467 3.72386 -3.91837 -1.78450
C 5.40690 3.94200 3.54524 -2.12352 3.47343 -1.04924
H 5.54814 2.22885 4.56608 -1.06191 0.87664 1.50546
H 6.40167 3.67393 7.00751 0.22939 0.31857 0.19908
H 7.52515 5.69759 6.19779 -0.08056 0.31948 -0.16768
H 6.66757 7.16005 4.32491 -1.87481 -1.23234 1.31190
H 4.24382 7.28235 3.59757 0.42124 -0.74044 1.14339
H 2.46202 6.59668 5.02036 -0.66170 0.45986 -0.00642
H 2.28702 4.74601 6.61000 3.32761 -0.24386 -1.97541
H 4.37340 3.14591 6.78099 -0.77825 0.33701 -1.09249
H 5.53266 5.76224 2.25796 -1.11910 -0.26323 1.84322
H 5.78422 3.47035 2.58449 -0.00169 -0.05070 1.29383
20
Lattice="10.000000 0.000000 0.000000 0.000000 10.000000 0.000000 0.000000 0.000000 10.000000" Properties=species:S:1:pos:R:3:dft_forces:R:3 dft_energy=-10505.97464345
C 5.73396 6.44694 4.45153 0.68681 2.40770 -2.52194
C 4.53159 6.31771 5.95421 -1.49835 2.08185 1.57859
C 3.28081 5.45361 5.77547 5.19584 0.11637 -1.01734
C 3.45421 4.25097 4.95926 -1.18431 -0.51131 -0.31850
C 4.65875 3.32145 4.71457 2.89090 4.71012 1.98578
C 5.93713 3.41665 5.64700 -1.45410 1.10235 -1.11764
C 6.53104 4.54694 6.07903 -0.77905 2.00191 0.23712
C 6.04998 6.07262 5.85118 0.64733 -3.98019 -0.33756
C 4.66618 4.36058 3.56359 1.07201 0.66614 -1.41664
C 5.33929 5.64997 3.30481 0.35200 -0.05709 3.44868
H 6.15619 7.60945 4.24374 -1.33915 -2.84204 0.17405
H 4.40909 7.41832 6.38626 -0.42381 -2.01069 -0.79709
H 2.29356 5.87573 5.99522 0.01844 0.17201 -0.30319
H 2.50849 3.80968 4.52624 0.52439 0.27458 0.53393
H 4.62522 2.30701 4.44255 -1.12978 -1.69795 -0.83035
H 6.48377 2.50568 5.83203 0.08162 -0.96221 0.28342
H 7.38806 4.48371 6.77874 0.08517 -0.14045 -0.33923
H 6.98192 6.68445 6.11963 -1.87414 0.01914 0.88255
H 4.48910 3.87225 2.60450 -0.87621 -0.26000 -0.38500
H 5.58637 6.20361 2.35337 -0.99559 -1.09025 0.26038
20
Lattice="10.000000 0.000000 0.000000 0.000000 10.000000 0.000000 0.000000 0.000000 10.000000" Properties=species:S:1:pos:R:3:dft_forces:R:3 dft_energy=-10506.99659047
C 4.18519 4.26202 6.43822 0.28122 2.04917 -1.71780
C 5.26579 6.21903 6.22994 1.70332 -1.00705 -2.96719
C 6.42394 5.97270 5.44480 1.39737 -0.54601 -1.73363
C 6.53058 5.21417 4.15292 0.81016 1.48128 4.40627
C 5.34311 4.63797 3.52585 -0.51247 -1.17190 -2.50911
C 3.96953 5.30828 3.47114 1.07837 2.26110 -0.62612
C 3.33044 5.95038 4.51199 1.85957 -2.05653 -1.18105
C 3.86719 5.81934 5.91372 -1.00315 -1.46520 2.50356
C 5.39350 3.37601 4.33982 -0.66558 1.45486 2.25500
C 4.90663 3.31276 5.74367 0.79463 -0.85241 -4.15511
H 4.10311 3.99283 7.45990 -0.70737 0.26063 1.72228
H 5.50863 6.73159 7.10747 -0.03514 1.02792 2.08200
H 7.48545 6.35772 5.79259 -2.02572 -0.63648 -0.16154
H 7.59815 4.90702 3.88668 -1.31423 0.37569 -0.18920
H 5.76056 4.42968 2.46239 -1.26034 -0.09238 0.96682
H 3.75980 5.63189 2.39425 -0.59175 -0.60776 1.11985
H 2.42903 6.45190 4.20452 -0.84185 0.68005 0.43619
H 3.18325 6.32638 6.72924 0.83539 -0.95154 -1.44764
H 5.83869 2.53065 3.82564 0.42931 -0.62123 0.28007
H 5.11264 2.27552 6.07643 -0.23175 0.41780 0.91635
20
Lattice="10.000000 0.000000 0.000000 0.000000 10.000000 0.000000 0.000000 0.000000 10.000000" Properties=species:S:1:pos:R:3:dft_forces:R:3 dft_energy=-10506.83634929
C 6.17273 3.97004 4.62316 -0.39943 -5.18658 2.32763
C 5.15368 4.96568 3.24282 1.52800 1.14830 3.00836
C 3.90904 4.97693 3.73690 -4.24782 0.15485 0.03981
C 3.35801 5.26525 4.99080 -1.78954 -0.57751 1.83021
C 4.18832 5.70350 6.22918 -3.36551 -0.86363 0.69313
C 5.34559 6.51895 6.00525 3.61393 0.91040 -1.86122
C 6.35331 6.28965 5.05101 -3.69600 3.07890 4.17103
C 6.32705 5.28193 4.08081 2.91107 0.08013 -1.50066
C 4.31720 4.20972 6.42852 0.71166 0.36012 -0.44657
C 5.34448 3.49817 5.75540 -0.25513 -1.55198 -0.37986
H 6.82497 3.15247 4.16723 -0.73896 0.71202 0.42637
H 5.47710 4.64925 2.34671 0.42326 -1.50145 -4.08773
H 3.09721 4.58180 3.10962 0.13020 -0.12897 -0.55567
H 2.19166 4.92408 5.21046 2.87020 1.11233 -0.66586
H 3.51969 6.13197 7.06088 0.61618 -0.32828 -1.03210
H 5.47036 7.43405 6.60814 -0.01902 -0.13370 0.16684
H 7.11119 7.03363 5.00458 1.10397 0.94933 0.01490
H 7.35356 5.39162 3.58145 -1.29142 -0.51288 -0.37022
H 3.56532 3.75272 7.14933 0.94904 0.12000 -0.80321
H 5.21693 2.33375 6.01722 0.94534 2.15857 -0.97518
20
Lattice="10.000000 0.000000 0.000000 0.000000 10.000000 0.000000 0.000000 0.000000 10.000000" Properties=species:S:1:pos:R:3:dft_forces:R:3 dft_energy=-10506.74174610
C 5.73652 6.48071 4.45408 -0.10246 -4.41454 2.62045
C 4.36030 6.21754 6.17313 2.92266 -0.32763 -0.86209
C 3.36503 5.40471 5.71959 -1.93631 -2.92787 0.10369
C 3.43095 4.09172 5.09873 1.38518 1.21678 -0.24572
C 4.75982 3.36176 4.66427 -2.18582 1.87479 -2.69802
C 5.99469 3.49203 5.51041 2.33727 -0.68636 0.65567
C 6.59314 4.64385 6.06926 0.12552 -2.32205 -0.40036
C 5.99024 6.00136 5.90238 -3.11456 1.56090 0.40076
C 4.82259 4.40354 3.30861 0.18042 -1.81690 3.99715
C 5.27723 5.71099 3.39648 -0.38542 0.17355 -1.83077
H 5.81078 7.45454 4.26263 0.62840 4.75180 -0.70664
H 3.98174 7.16722 6.55338 0.57538 0.56634 0.29502
H 2.31611 5.71498 6.05178 0.88898 -0.17396 -0.75989
H 2.45188 3.67379 4.78796 0.37366 -0.16205 0.01129
H 4.44941 2.31769 4.15262 1.09768 1.81490 1.58893
H 6.57940 2.46204 5.51868 -0.72989 1.93162 0.35657
H 7.65901 4.58954 6.59809 -2.12500 -0.11086 -1.03052
H 6.37239 6.78913 6.62815 0.39184 -0.62672 -1.07756
H 4.43448 3.88485 2.45656 -0.43473 0.02299 -1.07671
H 5.14608 6.29327 2.43300 0.10720 -0.34473 0.65876
20
Lattice="10.000000 0.000000 0.000000 0.000000 10.000000 0.000000 0.000000 0.000000 10.000000" Properties=species:S:1:pos:R:3:dft_forces:R:3 dft_energy=-10506.23365878
C 6.11872 3.85991 4.72681 3.72129 2.36811 -4.21250
C 5.19707 4.95313 3.21516 -2.87818 0.76732 4.19025
C 3.83224 4.96567 3.71662 5.33225 1.97061 1.44093
C 3.44082 5.32961 5.00727 -5.39883 -2.08977 -3.42208
C 4.17692 5.64202 6.16097 2.27231 1.13107 0.49027
C 5.33517 6.53560 5.95215 -2.23323 3.66305 4.30869
C 6.30279 6.41576 5.11097 -1.21977 -2.84985 -1.31217
C 6.28947 5.23287 4.25177 2.14247 0.02479 -3.85369
C 4.40760 4.21701 6.37069 -1.82427 -0.00395 1.98225
C 5.34596 3.53077 5.68295 -2.63978 -7.63245 5.52078
H 6.72257 3.18572 4.18051 0.83505 -1.35947 -0.47538
H 5.31509 4.53050 2.25610 0.81297 -0.52950 -1.56096
H 3.19753 4.71233 2.98854 -3.57520 -1.20531 -2.81435
H 2.25754 5.17129 5.07971 2.16785 0.50390 0.38739
H 3.53822 6.07710 6.85619 -1.38457 0.82191 1.95756
H 5.24963 7.50223 6.63315 0.46426 -1.52512 -1.13569
H 7.03797 7.09781 5.00836 2.89719 2.74574 -0.40482
H 7.20572 5.25347 3.60775 0.07920 0.01352 0.47587
H 3.75941 3.70090 7.13225 0.40445 0.28584 -0.66042
H 5.34314 2.30917 5.99479 0.02453 2.89956 -0.90194
20
Lattice="10.000000 0.000000 0.000000 0.000000 10.000000 0.000000 0.000000 0.000000 10.000000" Properties=species:S:1:pos:R:3:dft_forces:R:3 dft_energy=-10507.21721694
C 5.14650 3.25451 4.79899 -0.73029 0.07795 -1.71427
C 5.72738 4.43455 6.45842 3.51018 1.08926 1.64462
C 6.32074 5.61646 5.91175 0.16214 0.13094 -1.02830
C 5.88982 6.46695 4.79565 0.18082 -3.15674 1.87104
C 4.55134 6.33490 4.22682 0.00324 1.44051 -2.76637
C 3.33641 6.03126 4.98499 -1.81892 -2.10789 1.56332
C 3.25044 4.93193 5.84533 4.19693 1.17774 -3.51234
C 4.46811 3.83112 5.99926 -2.50084 2.56222 -0.45680
C 5.39783 5.32486 3.33919 -1.61666 0.48090 1.09996
C 5.41571 3.93698 3.57155 1.33317 -1.54506 2.25955
H 5.36554 2.14980 4.80277 0.02658 0.77428 0.24365
H 6.43187 3.94594 7.31675 -1.72532 0.65965 -1.94303
H 7.40734 5.84470 6.04908 -0.46938 -0.46980 0.85647
H 6.60865 7.15904 4.40251 0.44235 0.85076 -0.26561
H 4.28226 7.24450 3.63739 0.43701 -0.26626 -0.20499
H 2.37373 6.67146 4.74785 1.67954 -1.07178 0.58270
H 2.32361 4.65286 6.17950 -2.82498 -0.87088 1.50790
H 3.96768 3.10594 6.61786 0.27233 -0.95214 0.83258
H 5.78237 5.59995 2.35107 0.03196 0.76166 0.03808
H 6.16371 3.31298 3.02389 -0.58986 0.43471 -0.60813
20
Lattice="10.000000 0.000000 0.000000 0.000000 10.000000 0.000000 0.000000 0.000000 10.000000" Properties=species:S:1:pos:R:3:dft_forces:R:3 dft_energy=-10506.48642287
C 4.68759 5.21715 3.37464 -1.77928 0.87624 -1.74772
C 6.12100 5.71399 4.14908 1.51461 1.09026 -1.41966
C 6.03824 6.39467 5.42600 -1.28800 -0.58080 -0.01137
C 5.09136 5.96033 6.38208 2.41344 1.49674 -0.62551
C 4.45683 4.56550 6.45181 -3.89002 6.48157 2.74124
C 5.06967 3.42319 5.98935 4.02613 -2.65179 -4.47579
C 5.84704 3.33334 4.78401 -4.56212 0.63683 5.04145
C 5.81906 4.28253 3.75270 -0.10343 2.64122 -0.16875
C 3.39683 5.32182 5.58457 -0.45792 -1.65352 -1.71318
C 3.40693 5.34340 4.16848 1.56279 0.87520 -0.12303
H 4.67089 5.49235 2.13478 -0.17986 -0.74918 3.41590
H 6.95416 6.10276 3.49405 -0.93120 0.17051 0.12519
H 6.45676 7.45780 5.53584 -0.46227 -1.30052 -0.35736
H 5.04239 6.83273 7.08368 -0.88147 -1.27349 0.70170
H 4.02667 4.56923 7.52914 0.49167 -0.71041 -1.35189
H 4.92419 2.55258 6.58923 0.35585 -1.14971 0.67225
H 6.31771 2.45596 4.59081 1.60791 -3.37443 -0.60168
H 6.28774 4.02601 2.83708 1.15483 -0.59602 -1.00455
H 2.37723 5.56365 5.93335 0.29825 0.07490 0.84534
H 2.46973 5.79249 3.70901 1.11008 -0.30361 0.05743
20
Lattice="10.000000 0.000000 0.000000 0.000000 10.000000 0.000000 0.000000 0.000000 10.000000" Properties=species:S:1:pos:R:3:dft_forces:R:3 dft_energy=-10507.50744929
C 3.88078 5.70071 3.78498 1.71081 -0.98665 -1.06048
C 6.36332 5.50958 3.97968 -0.39976 -1.56008 -1.11886
C 6.71561 5.55986 5.28327 1.20457 1.68317 -0.17210
C 5.81403 5.20279 6.41660 -2.09123 1.36394 -4.93925
C 4.71405 4.19541 6.34523 -0.20653 -0.80823 -0.20778
C 4.67224 3.14741 5.31100 -0.26976 1.54312 -2.50607
C 4.87532 3.42879 3.94952 0.19463 -1.44353 2.77412
C 5.05183 4.81807 3.46066 1.47290 1.10981 -2.17339
C 4.20120 5.60487 6.29709 0.30359 1.28861 0.14337
C 3.61409 6.16116 4.96714 0.71059 -1.03206 5.91612
H 3.22185 6.04410 3.06730 -1.47443 0.68655 -2.51564
H 7.08427 5.70132 3.14451 -0.21936 0.38198 0.67579
H 7.74821 6.15308 5.40667 -1.93909 -1.41125 0.55489
H 6.27876 5.20341 7.29112 2.01412 0.51964 4.71145
H 4.59126 3.81069 7.34068 -0.30813 -0.66630 0.85799
H 4.36526 2.18255 5.68872 0.30013 -0.96352 -0.09360
H 5.13164 2.57846 3.29880 -0.49989 -0.04289 -0.28246
H 5.21821 4.80538 2.29079 -0.58126 -0.11109 1.79016
H 3.65915 5.99390 7.27722 1.16786 -0.63673 -1.81412
H 2.75168 6.70676 5.28112 -1.08975 1.08552 -0.54014
20
Lattice="10.000000 0.000000 0.000000 0.000000 10.000000 0.000000 0.000000 0.000000 10.000000" Properties=species:S:1:pos:R:3:dft_forces:R:3 dft_energy=-10506.52848395
C 4.67667 5.13752 3.31876 -3.06706 0.33525 -0.93220
C 6.14521 5.74436 4.14684 0.56816 0.91264 0.24250
C 5.91851 6.41438 5.39521 0.40048 1.91568 0.37250
C 5.00351 5.99612 6.40391 1.85249 0.30142 -2.07547
C 4.48797 4.55257 6.48888 -4.80580 5.86430 1.80377
C 5.14511 3.42716 6.00977 2.96368 -4.24995 -3.22724
C 5.84313 3.22502 4.78738 -3.11702 2.02645 4.18839
C 5.85374 4.28073 3.81573 -0.32028 3.02329 -0.85612
C 3.42470 5.29701 5.54456 0.13139 -0.17930 -1.05586
C 3.47950 5.46032 4.13674 1.52829 -1.16941 -0.05958
H 4.29551 5.27775 2.11946 1.94688 -0.40743 2.87869
H 6.84164 6.32692 3.48128 -0.40933 -0.76574 0.13520
H 6.31903 7.58290 5.47170 -1.09466 -2.80906 -0.30140
H 4.72023 6.89191 6.97188 -0.37733 -0.73101 1.09449
H 3.87173 4.56495 7.49102 1.37288 -1.02019 -1.35634
H 4.97966 2.48740 6.55312 0.25358 -0.03304 0.51617
H 6.33560 2.31496 4.61176 0.63657 -1.76727 -0.43083
H 6.48465 4.12369 2.99580 1.19512 -0.87661 -1.81066
H 2.51361 5.70599 6.01277 0.10446 -0.17526 0.32366
H 2.66959 5.98819 3.57856 0.23750 -0.19478 0.55033
20
Lattice="10.000000 0.000000 0.000000 0.000000 10.000000 0.000000 0.000000 0.000000 10.000000" Properties=species:S:1:pos:R:3:dft_forces:R:3 dft_energy=-10507.14977659
C 5.71814 6.49422 4.32622 -0.10007 1.89055 1.67093
C 4.39731 6.25079 6.23319 1.91493 1.34423 0.76603
C 3.44246 5.36373 5.82321 0.58659 -0.94335 -1.13051
C 3.62272 4.14164 4.94030 -0.22648 1.70199 0.61955
C 4.87457 3.39172 4.61298 0.50922 -1.50579 1.75652
C 6.05866 3.51631 5.52174 1.45966 0.17790 0.34190
C 6.65134 4.61423 6.05925 -3.29563 1.81344 -1.29630
C 5.85835 6.01909 5.81128 3.10564 0.31147 0.03202
C 4.61592 4.29381 3.51904 -0.82886 3.54656 -0.29469
C 5.08704 5.69805 3.39967 0.71521 0.52239 0.18102
H 5.83567 7.79391 4.29847 -0.38932 -3.84816 -0.63778
H 4.38250 7.34894 6.75122 -1.07929 -2.60033 -1.04006
H 2.39489 5.61342 5.84446 -0.88227 0.33832 0.55922
H 2.67008 3.62236 4.76617 0.03696 -0.08031 -0.19390
H 4.61095 2.34919 4.32020 0.43199 0.17788 0.33132
H 6.62010 2.62269 5.74967 0.12846 -1.15569 -0.09630
H 7.57918 4.63724 6.66651 -0.36137 -0.21236 -0.16509
H 6.61763 6.76216 6.27538 -1.39216 -0.57166 -0.16301
H 4.05426 3.98012 2.64467 -0.04452 -0.54078 -0.38475