      -----------------------------------------------------------      
     |                   =====================                   |     
     |                           x T B                           |     
     |                   =====================                   |     
     |                         S. Grimme                         |     
     |          Mulliken Center for Theoretical Chemistry        |     
     |                    University of Bonn                     |     
      -----------------------------------------------------------      

   * xtb version 6.5.1 (conda-forge) compiled by 'runner@Mac-1672869950218.local' on 2023-01-04

   xtb is free software: you can redistribute it and/or modify it under
   the terms of the GNU Lesser General Public License as published by
   the Free Software Foundation, either version 3 of the License, or
   (at your option) any later version.
   
   xtb is distributed in the hope that it will be useful,
   but WITHOUT ANY WARRANTY; without even the implied warranty of
   MERCHANTABILITY or FITNESS FOR A PARTICULAR PURPOSE.  See the
   GNU Lesser General Public License for more details.
   
   Cite this work as:
   * C. Bannwarth, E. Caldeweyher, S. Ehlert, A. Hansen, P. Pracht,
     J. Seibert, S. Spicher, S. Grimme, WIREs Comput. Mol. Sci., 2020, 11,
     e01493. DOI: 10.1002/wcms.1493
   
   for GFN2-xTB:
   * C. Bannwarth, S. Ehlert and S. Grimme., J. Chem. Theory Comput., 2019,
     15, 1652-1671. DOI: 10.1021/acs.jctc.8b01176
   for GFN1-xTB:
   * S. Grimme, C. Bannwarth, P. Shushkov, J. Chem. Theory Comput., 2017,
     13, 1989-2009. DOI: 10.1021/acs.jctc.7b00118
   for GFN0-xTB:
   * P. Pracht, E. Caldeweyher, S. Ehlert, S. Grimme, ChemRxiv, 2019, preprint.
     DOI: 10.26434/chemrxiv.8326202.v1
   for GFN-FF:
   * S. Spicher and S. Grimme, Angew. Chem. Int. Ed., 2020, 59, 15665-15673.
     DOI: 10.1002/anie.202004239
   
   for ALPB and GBSA implicit solvation:
   * S. Ehlert, M. Stahn, S. Spicher, S. Grimme, J. Chem. Theory Comput.,
     2021, 17, 4250-4261. DOI: 10.1021/acs.jctc.1c00471
   
   for DFT-D4:
   * E. Caldeweyher, C. Bannwarth and S. Grimme, J. Chem. Phys., 2017,
     147, 034112. DOI: 10.1063/1.4993215
   * E. Caldeweyher, S. Ehlert, A. Hansen, H. Neugebauer, S. Spicher,
     C. Bannwarth and S. Grimme, J. Chem. Phys., 2019, 150, 154122.
     DOI: 10.1063/1.5090222
   * E. Caldeweyher, J.-M. Mewes, S. Ehlert and S. Grimme, Phys. Chem. Chem. Phys.
     2020, 22, 8499-8512. DOI: 10.1039/D0CP00502A
   
   for sTDA-xTB:
   * S. Grimme and C. Bannwarth, J. Chem. Phys., 2016, 145, 054103.
     DOI: 10.1063/1.4959605
   
   in the mass-spec context:
   * V. Asgeirsson, C. Bauer and S. Grimme, Chem. Sci., 2017, 8, 4879.
     DOI: 10.1039/c7sc00601b
   * J. Koopman and S. Grimme, ACS Omega 2019, 4, 12, 15120-15133.
     DOI: 10.1021/acsomega.9b02011
   
   for metadynamics refer to:
   * S. Grimme, J. Chem. Theory Comput., 2019, 155, 2847-2862
     DOI: 10.1021/acs.jctc.9b00143
   
   for SPH calculations refer to:
   * S. Spicher and S. Grimme, J. Chem. Theory Comput., 2021, 17, 1701-1714
     DOI: 10.1021/acs.jctc.0c01306
   
   with help from (in alphabetical order)
   P. Atkinson, C. Bannwarth, F. Bohle, G. Brandenburg, E. Caldeweyher
   M. Checinski, S. Dohm, S. Ehlert, S. Ehrlich, I. Gerasimov, C. Hölzer
   A. Katbashev, J. Koopman, C. Lavigne, S. Lehtola, F. März, M. Müller,
   F. Musil, H. Neugebauer, J. Pisarek, C. Plett, P. Pracht, F. Pultar,
   J. Seibert, P. Shushkov, S. Spicher, M. Stahn, M. Steiner, T. Strunk,
   J. Stückrath, T. Rose, and J. Unsleber
   
 * started run on 2023/03/16 at 12:37:17.951     

           -------------------------------------------------
          |                Calculation Setup                |
           -------------------------------------------------

          program call               : /Users/nickhattrup/miniconda3/envs/MolDyML/bin/xtb C10H10_opt_xtb.xyz --chrg 0 --uhf 0 --opt
          coordinate file            : C10H10_opt_xtb.xyz
          omp threads                :                     4

   ID    Z sym.   atoms
    1    6 C      1-10
    2    1 H      11-20

           -------------------------------------------------
          |                 G F N 2 - x T B                 |
           -------------------------------------------------

        Reference                      10.1021/acs.jctc.8b01176
      * Hamiltonian:
        H0-scaling (s, p, d)           1.850000    2.230000    2.230000
        zeta-weighting                 0.500000
      * Dispersion:
        s8                             2.700000
        a1                             0.520000
        a2                             5.000000
        s9                             5.000000
      * Repulsion:
        kExp                           1.500000    1.000000
        rExp                           1.000000
      * Coulomb:
        alpha                          2.000000
        third order                    shell-resolved
        anisotropic                    true
        a3                             3.000000
        a5                             4.000000
        cn-shift                       1.200000
        cn-exp                         4.000000
        max-rad                        5.000000


          ...................................................
          :                      SETUP                      :
          :.................................................:
          :  # basis functions                  50          :
          :  # atomic orbitals                  50          :
          :  # shells                           30          :
          :  # electrons                        50          :
          :  max. iterations                   250          :
          :  Hamiltonian                  GFN2-xTB          :
          :  restarted?                      false          :
          :  GBSA solvation                  false          :
          :  PC potential                    false          :
          :  electronic temp.          300.0000000     K    :
          :  accuracy                    1.0000000          :
          :  -> integral cutoff          0.2500000E+02      :
          :  -> integral neglect         0.1000000E-07      :
          :  -> SCF convergence          0.1000000E-05 Eh   :
          :  -> wf. convergence          0.1000000E-03 e    :
          :  Broyden damping             0.4000000          :
          ...................................................

 iter      E             dE          RMSdq      gap      omega  full diag
   1    -26.8568741 -0.268569E+02  0.421E+00    4.23       0.0  T
   2    -26.8863116 -0.294376E-01  0.252E+00    4.15       1.0  T
   3    -26.8796342  0.667738E-02  0.838E-01    4.08       1.0  T
   4    -26.8801825 -0.548247E-03  0.613E-01    4.14       1.0  T
   5    -26.8876909 -0.750843E-02  0.505E-02    4.11       1.0  T
   6    -26.8876984 -0.749354E-05  0.282E-02    4.11       1.0  T
   7    -26.8876979  0.468319E-06  0.111E-02    4.11       2.0  T
   8    -26.8876997 -0.180410E-05  0.175E-03    4.11      12.8  T
   9    -26.8876998 -0.138869E-07  0.717E-04    4.11      31.2  T
  10    -26.8876998 -0.148793E-08  0.221E-04    4.11     101.0  T

   *** convergence criteria satisfied after 10 iterations ***

         #    Occupation            Energy/Eh            Energy/eV
      -------------------------------------------------------------
         1        2.0000           -0.6651202             -18.0988
       ...           ...                  ...                  ...
        19        2.0000           -0.4470052             -12.1636
        20        2.0000           -0.4389422             -11.9442
        21        2.0000           -0.4331608             -11.7869
        22        2.0000           -0.4283223             -11.6552
        23        2.0000           -0.3940379             -10.7223
        24        2.0000           -0.3713354             -10.1046
        25        2.0000           -0.3568920              -9.7115 (HOMO)
        26                         -0.2058274              -5.6008 (LUMO)
        27                         -0.1986487              -5.4055
        28                         -0.1974925              -5.3740
        29                          0.0136468               0.3713
        30                          0.0428324               1.1655
       ...                                ...                  ...
        50                          0.6775140              18.4361
      -------------------------------------------------------------
                  HL-Gap            0.1510646 Eh            4.1107 eV
             Fermi-level           -0.2813597 Eh           -7.6562 eV

 SCC (total)                   0 d,  0 h,  0 min,  0.016 sec
 SCC setup                      ...        0 min,  0.001 sec (  5.716%)
 Dispersion                     ...        0 min,  0.001 sec (  3.867%)
 classical contributions        ...        0 min,  0.000 sec (  1.065%)
 integral evaluation            ...        0 min,  0.001 sec (  7.648%)
 iterations                     ...        0 min,  0.012 sec ( 72.439%)
 molecular gradient             ...        0 min,  0.001 sec (  8.199%)
 printout                       ...        0 min,  0.000 sec (  1.036%)

         :::::::::::::::::::::::::::::::::::::::::::::::::::::
         ::                     SUMMARY                     ::
         :::::::::::::::::::::::::::::::::::::::::::::::::::::
         :: total energy             -26.397441688304 Eh    ::
         :: gradient norm              0.147714440751 Eh/a0 ::
         :: HOMO-LUMO gap              4.110676831169 eV    ::
         ::.................................................::
         :: SCC energy               -26.887699762047 Eh    ::
         :: -> isotropic ES            0.001599700419 Eh    ::
         :: -> anisotropic ES          0.005116165431 Eh    ::
         :: -> anisotropic XC          0.017120436424 Eh    ::
         :: -> dispersion             -0.019401363065 Eh    ::
         :: repulsion energy           0.490158274954 Eh    ::
         :: add. restraining           0.000000000000 Eh    ::
         :: total charge              -0.000000000000 e     ::
         :::::::::::::::::::::::::::::::::::::::::::::::::::::

      ----------------------------------------------------------- 
     |                   =====================                   |
     |                        A N C O P T                        |
     |                   =====================                   |
     |               Approximate Normal Coordinate               |
     |                Rational Function Optimizer                |
      ----------------------------------------------------------- 

          ...................................................
          :                      SETUP                      :
          :.................................................:
          :   optimization level            normal          :
          :   max. optcycles                   200          :
          :   ANC micro-cycles                  20          :
          :   degrees of freedom                54          :
          :.................................................:
          :   RF solver                   davidson          :
          :   write xtbopt.log                true          :
          :   linear?                        false          :
          :   energy convergence         0.5000000E-05 Eh   :
          :   grad. convergence          0.1000000E-02 Eh/α :
          :   maximium RF displ.         1.0000000          :
          :   Hlow (freq-cutoff)         0.1000000E-01      :
          :   Hmax (freq-cutoff)         5.0000000          :
          :   S6 in model hess.         20.0000000          :
          ...................................................

generating ANC from model Hessian ...
Using Lindh-Hessian (1995)
 Shifting diagonal of input Hessian by    0.0000000000000000     
 Lowest  eigenvalues of input Hessian
    0.000000    0.000000    0.000000    0.000000    0.000000    0.000000
    0.011494    0.012042    0.012835    0.022422    0.022671    0.026820
    0.039901    0.040930    0.061797    0.062699    0.064416    0.070621
 Highest eigenvalues
    1.559543    1.588672    1.916116    2.000850    2.005453    2.065727


........................................................................
.............................. CYCLE    1 ..............................
........................................................................
   1    -26.8876998 -0.268877E+02  0.112E-04    4.11       0.0  T
   2    -26.8876998 -0.149640E-10  0.756E-05    4.11     295.6  T
   3    -26.8876998 -0.252598E-10  0.485E-05    4.11     461.2  T
     SCC iter.                  ...        0 min,  0.003 sec
     gradient                   ...        0 min,  0.001 sec
 * total energy  :   -26.3974417 Eh     change       -0.1472173E-09 Eh
   gradient norm :     0.1477146 Eh/α   predicted     0.0000000E+00 (-100.00%)
   displ. norm   :     0.4777874 α      lambda       -0.3478427E-01
   maximum displ.:     0.3208591 α      in ANC's #14, #5, #4, ...

........................................................................
.............................. CYCLE    2 ..............................
........................................................................
   1    -26.9000899 -0.269001E+02  0.491E-01    4.15       0.0  T
   2    -26.9002308 -0.140994E-03  0.293E-01    4.15       1.0  T
   3    -26.9001752  0.556316E-04  0.673E-02    4.16       1.0  T
   4    -26.9002262 -0.510008E-04  0.329E-02    4.15       1.0  T
   5    -26.9002465 -0.202896E-04  0.608E-03    4.15       3.7  T
   6    -26.9002467 -0.234674E-06  0.285E-03    4.15       7.8  T
   7    -26.9002468 -0.422469E-07  0.132E-03    4.15      17.0  T
   8    -26.9002468 -0.150002E-07  0.381E-04    4.15      58.7  T
   9    -26.9002468 -0.117358E-08  0.152E-04    4.15     147.0  T
     SCC iter.                  ...        0 min,  0.008 sec
     gradient                   ...        0 min,  0.001 sec
 * total energy  :   -26.4225692 Eh     change       -0.2512751E-01 Eh
   gradient norm :     0.0618710 Eh/α   predicted    -0.2138078E-01 ( -14.91%)
   displ. norm   :     0.3907974 α      lambda       -0.1283934E-01
   maximum displ.:     0.2665250 α      in ANC's #14, #5, #4, ...

........................................................................
.............................. CYCLE    3 ..............................
........................................................................
   1    -26.9062531 -0.269063E+02  0.396E-01    4.20       0.0  T
   2    -26.9063305 -0.774520E-04  0.237E-01    4.19       1.0  T
   3    -26.9060990  0.231467E-03  0.119E-01    4.20       1.0  T
   4    -26.9063484 -0.249393E-03  0.271E-02    4.19       1.0  T
   5    -26.9063611 -0.126517E-04  0.374E-03    4.19       6.0  T
   6    -26.9063611 -0.243412E-07  0.237E-03    4.19       9.4  T
   7    -26.9063611 -0.326539E-07  0.102E-03    4.19      21.8  T
   8    -26.9063611 -0.645233E-08  0.313E-04    4.19      71.4  T
   9    -26.9063611 -0.909740E-09  0.101E-04    4.19     222.5  T
     SCC iter.                  ...        0 min,  0.008 sec
     gradient                   ...        0 min,  0.001 sec
 * total energy  :   -26.4304439 Eh     change       -0.7874681E-02 Eh
   gradient norm :     0.0156706 Eh/α   predicted    -0.7400097E-02 (  -6.03%)
   displ. norm   :     0.2246697 α      lambda       -0.1738962E-02
   maximum displ.:     0.0996593 α      in ANC's #1, #5, #14, ...

........................................................................
.............................. CYCLE    4 ..............................
........................................................................
   1    -26.9057764 -0.269058E+02  0.201E-01    4.21       0.0  T
   2    -26.9057805 -0.405458E-05  0.119E-01    4.21       1.0  T
   3    -26.9057684  0.121308E-04  0.259E-02    4.21       1.0  T
   4    -26.9057814 -0.130429E-04  0.679E-03    4.21       3.3  T
   5    -26.9057820 -0.609167E-06  0.189E-03    4.21      11.8  T
   6    -26.9057820  0.607902E-08  0.151E-03    4.21      14.8  T
   7    -26.9057820 -0.233065E-07  0.146E-04    4.21     153.7  T
   8    -26.9057820 -0.124647E-09  0.659E-05    4.21     339.1  T
     SCC iter.                  ...        0 min,  0.010 sec
     gradient                   ...        0 min,  0.001 sec
 * total energy  :   -26.4314393 Eh     change       -0.9954108E-03 Eh
   gradient norm :     0.0090030 Eh/α   predicted    -0.9133714E-03 (  -8.24%)
   displ. norm   :     0.0672795 α      lambda       -0.2933110E-03
   maximum displ.:     0.0319973 α      in ANC's #14, #2, #17, ...

........................................................................
.............................. CYCLE    5 ..............................
........................................................................
   1    -26.9082329 -0.269082E+02  0.570E-02    4.21       0.0  T
   2    -26.9082332 -0.255643E-06  0.340E-02    4.21       1.0  T
   3    -26.9082330  0.171077E-06  0.401E-03    4.21       5.6  T
   4    -26.9082332 -0.224152E-06  0.116E-03    4.21      19.3  T
   5    -26.9082332 -0.129222E-07  0.643E-04    4.21      34.8  T
   6    -26.9082332 -0.160009E-08  0.284E-04    4.21      78.7  T
     SCC iter.                  ...        0 min,  0.008 sec
     gradient                   ...        0 min,  0.001 sec
 * total energy  :   -26.4315930 Eh     change       -0.1536705E-03 Eh
   gradient norm :     0.0045416 Eh/α   predicted    -0.1473392E-03 (  -4.12%)
   displ. norm   :     0.0615267 α      lambda       -0.7875568E-04
   maximum displ.:     0.0456250 α      in ANC's #1, #2, #12, ...

........................................................................
.............................. CYCLE    6 ..............................
........................................................................
   1    -26.9092138 -0.269092E+02  0.530E-02    4.21       0.0  T
   2    -26.9092140 -0.234824E-06  0.315E-02    4.21       1.0  T
   3    -26.9092101  0.394450E-05  0.148E-02    4.21       1.5  T
   4    -26.9092144 -0.429057E-05  0.117E-03    4.21      19.1  T
   5    -26.9092144 -0.177625E-07  0.432E-04    4.21      51.8  T
   6    -26.9092144 -0.345327E-09  0.177E-04    4.21     126.6  T
     SCC iter.                  ...        0 min,  0.008 sec
     gradient                   ...        0 min,  0.001 sec
 * total energy  :   -26.4316416 Eh     change       -0.4866069E-04 Eh
   gradient norm :     0.0022233 Eh/α   predicted    -0.3953709E-04 ( -18.75%)
   displ. norm   :     0.0363194 α      lambda       -0.2347140E-04
   maximum displ.:     0.0231437 α      in ANC's #2, #1, #12, ...

........................................................................
.............................. CYCLE    7 ..............................
........................................................................
   1    -26.9095390 -0.269095E+02  0.304E-02    4.22       0.0  T
   2    -26.9095391 -0.906456E-07  0.182E-02    4.22       1.2  T
   3    -26.9095379  0.115094E-05  0.781E-03    4.22       2.9  T
   4    -26.9095392 -0.124524E-05  0.841E-04    4.22      26.6  T
   5    -26.9095392 -0.890912E-08  0.277E-04    4.22      80.8  T
   6    -26.9095392 -0.193836E-09  0.174E-04    4.22     128.4  T
     SCC iter.                  ...        0 min,  0.008 sec
     gradient                   ...        0 min,  0.001 sec
 * total energy  :   -26.4316568 Eh     change       -0.1516716E-04 Eh
   gradient norm :     0.0014027 Eh/α   predicted    -0.1175638E-04 ( -22.49%)
   displ. norm   :     0.0422241 α      lambda       -0.8876864E-05
   maximum displ.:     0.0330847 α      in ANC's #1, #2, #4, ...

........................................................................
.............................. CYCLE    8 ..............................
........................................................................
   1    -26.9094039 -0.269094E+02  0.334E-02    4.22       0.0  T
   2    -26.9094040 -0.505387E-07  0.199E-02    4.22       1.1  T
   3    -26.9094036  0.368984E-06  0.489E-03    4.22       4.6  T
   4    -26.9094040 -0.408875E-06  0.528E-04    4.22      42.3  T
   5    -26.9094040 -0.183303E-08  0.244E-04    4.22      91.5  T
     SCC iter.                  ...        0 min,  0.006 sec
     gradient                   ...        0 min,  0.001 sec
 * total energy  :   -26.4316622 Eh     change       -0.5434355E-05 Eh
   gradient norm :     0.0011092 Eh/α   predicted    -0.4450931E-05 ( -18.10%)
   displ. norm   :     0.0101748 α      lambda       -0.2661448E-05
   maximum displ.:     0.0066483 α      in ANC's #2, #5, #12, ...

........................................................................
.............................. CYCLE    9 ..............................
........................................................................
   1    -26.9091848 -0.269092E+02  0.994E-03    4.22       0.0  T
   2    -26.9091848 -0.170993E-07  0.584E-03    4.22       3.8  T
   3    -26.9091846  0.176402E-06  0.334E-03    4.22       6.7  T
   4    -26.9091848 -0.195985E-06  0.327E-04    4.22      68.4  T
   5    -26.9091848 -0.132749E-08  0.109E-04    4.22     205.6  T
     SCC iter.                  ...        0 min,  0.006 sec
     gradient                   ...        0 min,  0.001 sec
 * total energy  :   -26.4316636 Eh     change       -0.1403181E-05 Eh
   gradient norm :     0.0006182 Eh/α   predicted    -0.1332697E-05 (  -5.02%)
   displ. norm   :     0.0064762 α      lambda       -0.9550276E-06
   maximum displ.:     0.0042269 α      in ANC's #2, #4, #3, ...

   *** GEOMETRY OPTIMIZATION CONVERGED AFTER 9 ITERATIONS ***

------------------------------------------------------------------------
 total energy gain   :        -0.0342219 Eh      -21.4746 kcal/mol
 total RMSD          :         0.2513534 a0        0.1330 Å
 total power (kW/mol):        -9.9832987 (step) -963.1018 (real)
------------------------------------------------------------------------

 ANCopt (total)                0 d,  0 h,  0 min,  0.093 sec
 optimizer setup                ...        0 min,  0.000 sec (  0.400%)
 model hessian                  ...        0 min,  0.006 sec (  6.802%)
 ANC generation                 ...        0 min,  0.001 sec (  0.743%)
 coordinate transformation      ...        0 min,  0.000 sec (  0.020%)
 single point calculation       ...        0 min,  0.081 sec ( 87.272%)
 optimization log               ...        0 min,  0.001 sec (  0.806%)
 hessian update                 ...        0 min,  0.000 sec (  0.248%)
 rational function              ...        0 min,  0.003 sec (  3.254%)

================
 final structure:
================
20
 xtb: 6.5.1 (conda-forge)
C            0.82498114951024       -0.34162684557342        1.54665816535808
C           -0.49646508821427       -0.36553634251210        1.68278220921103
C           -1.48302783579800       -0.13019009958297        0.62633027001647
C           -1.26185697953515        0.88820220262295       -0.47950142030743
C           -1.26756449555938       -0.59611975950296       -0.80407338483411
C           -0.05896986117379       -1.31113468454287       -1.21999512394419
C            1.17483365103679       -1.09848595111524       -0.77538118206883
C            1.54282049610680       -0.06166331909948        0.25283993027349
C            1.18475267774679        1.31238571259244       -0.24852490038680
C           -0.04643042755286        1.70161036204873       -0.56120738290885
H            1.44646658578994       -0.53395078782224        2.41034915790146
H           -0.91788056231732       -0.57863663505890        2.65726829808194
H           -2.50732965036595       -0.20266616856806        0.97375722453787
H           -2.15432857728283        1.42080687098210       -0.78738680389502
H           -2.16391553500245       -0.94464407000961       -1.30436261905040
H           -0.22129995455610       -2.08225640127036       -1.96344545655650
H            1.98515171590500       -1.69910443166309       -1.16507204604682
H            2.62006647417669       -0.10453066225684        0.42904619373368
H            2.00094020296520        2.01377808744077       -0.35429846482556
H           -0.20074398587935        2.71376292289113       -0.91588266428950

 Bond Distances (Angstroems)
 ---------------------------
C1-C2=1.3287         C1-C8=1.5059         C1-H11=1.0813        C2-C1=1.3287         C2-C3=1.4645         C2-H12=1.0829        
C3-C2=1.4645         C3-C4=1.5195         C3-C5=1.5197         C3-H13=1.0840        C4-C3=1.5195         C4-C5=1.5194         
C4-C10=1.4648        C4-H14=1.0840        C5-C3=1.5197         C5-C4=1.5194         C5-C6=1.4646         C5-H15=1.0841        
C6-C5=1.4646         C6-C7=1.3286         C6-H16=1.0834        C7-C6=1.3286         C7-C8=1.5059         C7-H17=1.0813        
C8-C1=1.5059         C8-C7=1.5059         C8-C9=1.5059         C8-H18=1.0924        C9-C8=1.5059         C9-C10=1.3286        
C9-H19=1.0813        C10-C4=1.4648        C10-C9=1.3286        C10-H20=1.0835       H11-C1=1.0813        H12-C2=1.0829        
H13-C3=1.0840        H14-C4=1.0840        H15-C5=1.0841        H16-C6=1.0834        H17-C7=1.0813        H18-C8=1.0924        
H19-C9=1.0813        H20-C10=1.0835       
 C  H  Rav=1.0838 sigma=0.0031  Rmin=1.0813  Rmax=1.0924    10
 C  C  Rav=1.4547 sigma=0.0755  Rmin=1.3286  Rmax=1.5197    12

 selected bond angles (degree)
 --------------------
C8-C1-C2=124.44                H11-C1-C2=119.12               H11-C1-C8=116.45               C3-C2-C1=126.38                
H12-C2-C1=118.87               H12-C2-C3=114.75               C4-C3-C2=122.32                C5-C3-C2=122.29                
C5-C3-C4= 59.99                H13-C3-C2=113.24               H13-C3-C4=114.56               H13-C3-C5=114.53               
C5-C4-C3= 60.01                C10-C4-C3=122.25               C10-C4-C5=122.26               H14-C4-C3=114.59               
H14-C4-C5=114.60               H14-C4-C10=113.23              C4-C5-C3= 60.00                C6-C5-C3=122.27                
C6-C5-C4=122.31                H15-C5-C3=114.56               H15-C5-C4=114.57               H15-C5-C6=113.22               
C7-C6-C5=126.38                H16-C6-C5=114.75               H16-C6-C7=118.86               C8-C7-C6=124.45                
H17-C7-C6=119.11               H17-C7-C8=116.45               C7-C8-C1=110.01                C9-C8-C1=110.02                
C9-C8-C7=110.05                H18-C8-C1=108.92               H18-C8-C7=108.91               H18-C8-C9=108.90               
C10-C9-C8=124.47               H19-C9-C8=116.42               H19-C9-C10=119.11              C9-C10-C4=126.38               
H20-C10-C4=114.76              H20-C10-C9=118.86              

 selected dihedral angles (degree)
 ---------------------------------
C3-C2-C1-C8=  0.00            C3-C2-C1-H11=180.04           H12-C2-C1-C8=179.90           H12-C2-C1-H11=359.93          
C4-C3-C2-C1=323.73            C4-C3-C2-H12=143.84           C5-C3-C2-C1= 36.26            C5-C3-C2-H12=216.36           
H13-C3-C2-C1=179.94           H13-C3-C2-H12=  0.05          C5-C4-C3-C2=111.38            C5-C4-C3-H13=254.74           
C10-C4-C3-C2=  0.00           C10-C4-C3-C5=248.62           C10-C4-C3-H13=143.37          H14-C4-C3-C2=216.71           
H14-C4-C3-C5=105.33           H14-C4-C3-H13=  0.07          C4-C5-C3-C2=248.57            C4-C5-C3-H13=105.31           
C6-C5-C3-C2=  0.00            C6-C5-C3-C4=111.43            C6-C5-C3-H13=216.73           H15-C5-C3-C2=143.27           
H15-C5-C3-C4=254.70           H15-C5-C3-H13=  0.00          C3-C5-C4-C10=111.36           C3-C5-C4-H14=254.68           
C6-C5-C4-C3=248.63            C6-C5-C4-C10=  0.00           C6-C5-C4-H14=143.31           H15-C5-C4-C3=105.30           
H15-C5-C4-C10=216.66          H15-C5-C4-H14=359.97          C7-C6-C5-C3=323.78            C7-C6-C5-C4= 36.30            
C7-C6-C5-H15=180.07           H16-C6-C5-C3=143.76           H16-C6-C5-C4=216.28           H16-C6-C5-H15=  0.05          
C8-C7-C6-C5=359.93            C8-C7-C6-H16=179.95           H17-C7-C6-C5=179.96           H17-C7-C6-H16=359.97          
C7-C8-C1-C2=299.27            C7-C8-C1-H11=119.24           C9-C8-C1-C2= 60.67            C9-C8-C1-H11=240.64           
H18-C8-C1-C2=179.97           H18-C8-C1-H11=359.94          C1-C8-C7-C6= 60.76            C1-C8-C7-H17=240.74           
C9-C8-C7-C6=299.38            C9-C8-C7-H17=119.36           H18-C8-C7-C6=180.07           H18-C8-C7-H17=  0.04          
C10-C9-C8-C1=299.28           C10-C9-C8-C7= 60.66           C10-C9-C8-H18=179.98          H19-C9-C8-C1=119.33           
H19-C9-C8-C7=240.70           H19-C9-C8-H18=  0.00          C9-C10-C4-C3= 36.24           C9-C10-C4-C5=323.74           
C9-C10-C4-H14=179.98          H20-C10-C4-C3=216.16          H20-C10-C4-C5=143.66          H20-C10-C4-H14=359.90         
C4-C10-C9-C8=  0.02           C4-C10-C9-H19=179.98          H20-C10-C9-C8=180.11          H20-C10-C9-H19=  0.06         
           -------------------------------------------------
          |                Final Singlepoint                |
           -------------------------------------------------

          ...................................................
          :                      SETUP                      :
          :.................................................:
          :  # basis functions                  50          :
          :  # atomic orbitals                  50          :
          :  # shells                           30          :
          :  # electrons                        50          :
          :  max. iterations                   250          :
          :  Hamiltonian                  GFN2-xTB          :
          :  restarted?                      false          :
          :  GBSA solvation                  false          :
          :  PC potential                    false          :
          :  electronic temp.          300.0000000     K    :
          :  accuracy                    1.0000000          :
          :  -> integral cutoff          0.2500000E+02      :
          :  -> integral neglect         0.1000000E-07      :
          :  -> SCF convergence          0.1000000E-05 Eh   :
          :  -> wf. convergence          0.1000000E-03 e    :
          :  Broyden damping             0.4000000          :
          ...................................................

 iter      E             dE          RMSdq      gap      omega  full diag
   1    -26.9091848 -0.269092E+02  0.749E-05    4.22       0.0  T
   2    -26.9091848 -0.464695E-11  0.517E-05    4.22     432.3  T
   3    -26.9091848 -0.345430E-10  0.283E-05    4.22     791.3  T

   *** convergence criteria satisfied after 3 iterations ***

         #    Occupation            Energy/Eh            Energy/eV
      -------------------------------------------------------------
         1        2.0000           -0.6528206             -17.7642
       ...           ...                  ...                  ...
        19        2.0000           -0.4530647             -12.3285
        20        2.0000           -0.4322853             -11.7631
        21        2.0000           -0.4322508             -11.7621
        22        2.0000           -0.4251963             -11.5702
        23        2.0000           -0.4020251             -10.9397
        24        2.0000           -0.3670158              -9.9870
        25        2.0000           -0.3669638              -9.9856 (HOMO)
        26                         -0.2119928              -5.7686 (LUMO)
        27                         -0.1981496              -5.3919
        28                         -0.1981337              -5.3915
        29                         -0.0052437              -0.1427
        30                          0.0770339               2.0962
       ...                                ...                  ...
        50                          0.6372675              17.3409
      -------------------------------------------------------------
                  HL-Gap            0.1549710 Eh            4.2170 eV
             Fermi-level           -0.2894783 Eh           -7.8771 eV

 SCC (total)                   0 d,  0 h,  0 min,  0.005 sec
 SCC setup                      ...        0 min,  0.000 sec (  1.832%)
 Dispersion                     ...        0 min,  0.000 sec (  1.369%)
 classical contributions        ...        0 min,  0.000 sec (  0.505%)
 integral evaluation            ...        0 min,  0.000 sec (  6.601%)
 iterations                     ...        0 min,  0.003 sec ( 63.431%)
 molecular gradient             ...        0 min,  0.001 sec ( 24.199%)
 printout                       ...        0 min,  0.000 sec (  1.942%)

         :::::::::::::::::::::::::::::::::::::::::::::::::::::
         ::                     SUMMARY                     ::
         :::::::::::::::::::::::::::::::::::::::::::::::::::::
         :: total energy             -26.431663627381 Eh    ::
         :: gradient norm              0.000618212036 Eh/a0 ::
         :: HOMO-LUMO gap              4.216975311612 eV    ::
         ::.................................................::
         :: SCC energy               -26.909184818174 Eh    ::
         :: -> isotropic ES            0.001530640462 Eh    ::
         :: -> anisotropic ES          0.005231552656 Eh    ::
         :: -> anisotropic XC          0.016273404509 Eh    ::
         :: -> dispersion             -0.019138185512 Eh    ::
         :: repulsion energy           0.477413612575 Eh    ::
         :: add. restraining           0.000000000000 Eh    ::
         :: total charge               0.000000000000 e     ::
         :::::::::::::::::::::::::::::::::::::::::::::::::::::

           -------------------------------------------------
          |                Property Printout                |
           -------------------------------------------------

    * Orbital Energies and Occupations

         #    Occupation            Energy/Eh            Energy/eV
      -------------------------------------------------------------
         1        2.0000           -0.6528206             -17.7642
       ...           ...                  ...                  ...
        13        2.0000           -0.4980402             -13.5524
        14        2.0000           -0.4980137             -13.5516
        15        2.0000           -0.4616119             -12.5611
        16        2.0000           -0.4615948             -12.5606
        17        2.0000           -0.4556968             -12.4001
        18        2.0000           -0.4531354             -12.3304
        19        2.0000           -0.4530647             -12.3285
        20        2.0000           -0.4322853             -11.7631
        21        2.0000           -0.4322508             -11.7621
        22        2.0000           -0.4251963             -11.5702
        23        2.0000           -0.4020251             -10.9397
        24        2.0000           -0.3670158              -9.9870
        25        2.0000           -0.3669638              -9.9856 (HOMO)
        26                         -0.2119928              -5.7686 (LUMO)
        27                         -0.1981496              -5.3919
        28                         -0.1981337              -5.3915
        29                         -0.0052437              -0.1427
        30                          0.0770339               2.0962
        31                          0.0866872               2.3589
        32                          0.1049463               2.8557
        33                          0.1050243               2.8579
        34                          0.1165422               3.1713
        35                          0.1180530               3.2124
        36                          0.1183026               3.2192
       ...                                ...                  ...
        50                          0.6372675              17.3409
      -------------------------------------------------------------
                  HL-Gap            0.1549710 Eh            4.2170 eV
             Fermi-level           -0.2894783 Eh           -7.8771 eV

     #   Z          covCN         q      C6AA      α(0)
     1   6 C        2.900    -0.035    28.880     8.811
     2   6 C        2.889    -0.036    28.883     8.811
     3   6 C        3.860    -0.012    20.749     6.478
     4   6 C        3.860    -0.012    20.748     6.478
     5   6 C        3.860    -0.012    20.748     6.478
     6   6 C        2.889    -0.036    28.882     8.811
     7   6 C        2.900    -0.035    28.880     8.811
     8   6 C        3.864    -0.008    20.680     6.467
     9   6 C        2.900    -0.035    28.879     8.811
    10   6 C        2.889    -0.036    28.882     8.811
    11   1 H        0.925     0.024     2.675     2.558
    12   1 H        0.925     0.024     2.677     2.559
    13   1 H        0.925     0.028     2.617     2.530
    14   1 H        0.925     0.028     2.616     2.529
    15   1 H        0.925     0.028     2.617     2.530
    16   1 H        0.925     0.024     2.679     2.559
    17   1 H        0.925     0.024     2.675     2.558
    18   1 H        0.924     0.030     2.583     2.513
    19   1 H        0.925     0.024     2.675     2.558
    20   1 H        0.925     0.024     2.679     2.560

 Mol. C6AA /au·bohr⁶  :       4441.769688
 Mol. C8AA /au·bohr⁸  :     107264.900193
 Mol. α(0) /au        :        104.220468


Wiberg/Mayer (AO) data.
largest (>0.10) Wiberg bond orders for each atom

 ---------------------------------------------------------------------------
     #   Z sym  total        # sym  WBO       # sym  WBO       # sym  WBO
 ---------------------------------------------------------------------------
     1   6 C    3.990 --     2 C    1.870     8 C    0.983    11 H    0.969
     2   6 C    3.992 --     1 C    1.870     3 C    1.076    12 H    0.967
     3   6 C    3.949 --     2 C    1.076    13 H    0.973     4 C    0.892
                             5 C    0.892
     4   6 C    3.949 --    10 C    1.076    14 H    0.973     3 C    0.892
                             5 C    0.892
     5   6 C    3.949 --     6 C    1.076    15 H    0.973     4 C    0.892
                             3 C    0.892
     6   6 C    3.992 --     7 C    1.870     5 C    1.076    16 H    0.967
     7   6 C    3.990 --     6 C    1.870     8 C    0.983    17 H    0.969
     8   6 C    3.997 --     9 C    0.983     7 C    0.983     1 C    0.983
                            18 H    0.975
     9   6 C    3.990 --    10 C    1.871     8 C    0.983    19 H    0.969
    10   6 C    3.992 --     9 C    1.871     4 C    1.076    20 H    0.967
    11   1 H    0.999 --     1 C    0.969
    12   1 H    0.999 --     2 C    0.967
    13   1 H    0.999 --     3 C    0.973
    14   1 H    0.999 --     4 C    0.973
    15   1 H    0.999 --     5 C    0.973
    16   1 H    0.999 --     6 C    0.967
    17   1 H    0.999 --     7 C    0.969
    18   1 H    0.999 --     8 C    0.975
    19   1 H    0.999 --     9 C    0.969
    20   1 H    0.999 --    10 C    0.967
 ---------------------------------------------------------------------------

Topologies differ in total number of bonds
Writing topology from bond orders to xtbtopo.mol

molecular dipole:
                 x           y           z       tot (Debye)
 q only:       -0.130       0.005      -0.021
   full:       -0.197       0.007      -0.032       0.509
molecular quadrupole (traceless):
                xx          xy          yy          xz          yz          zz
 q only:        1.551      -0.095      -0.807       0.386      -0.017      -0.744
  q+dip:        5.745      -0.351      -2.982       1.434      -0.064      -2.763
   full:        3.533      -0.215      -1.834       0.881      -0.041      -1.698

           -------------------------------------------------
          |                Geometry Summary                 |
           -------------------------------------------------

      molecular mass/u    :      130.1867665
   center of mass at/Å    :        0.0095580      -0.0002163       0.0016834
  moments of inertia/u·Å² :        0.2598530E+03   0.3028832E+03   0.3029047E+03
rotational constants/cm⁻¹ :        0.6487371E-01   0.5565720E-01   0.5565326E-01

 * 19 selected distances

     #   Z          #   Z                                           value/Å
     1   6 C        2   6 C                                       1.3286542
     2   6 C        3   6 C                                       1.4645085
     3   6 C        4   6 C                                       1.5195077
     3   6 C        5   6 C                                       1.5197269 (max)
     4   6 C        5   6 C                                       1.5194050
     5   6 C        6   6 C                                       1.4645609
     6   6 C        7   6 C                                       1.3285979
     4   6 C       10   6 C                                       1.4647767
     9   6 C       10   6 C                                       1.3285625
     1   6 C       11   1 H                                       1.0812932 (min)
     2   6 C       12   1 H                                       1.0828786
     3   6 C       13   1 H                                       1.0840446
     4   6 C       14   1 H                                       1.0839589
     5   6 C       15   1 H                                       1.0840682
     6   6 C       16   1 H                                       1.0833736
     7   6 C       17   1 H                                       1.0813034
     8   6 C       18   1 H                                       1.0924035
     9   6 C       19   1 H                                       1.0813425
    10   6 C       20   1 H                                       1.0835406

 * 2 distinct bonds (by element types)

   Z      Z             #   av. dist./Å        max./Å        min./Å
   1 H    6 C          10     1.0838207     1.0924035     1.0812932
   6 C    6 C           9     1.4375889     1.5197269     1.3285625


optimized geometry written to: xtbopt.xyz


           -------------------------------------------------
          | TOTAL ENERGY              -26.431663627381 Eh   |
          | GRADIENT NORM               0.000618212036 Eh/α |
          | HOMO-LUMO GAP               4.216975311612 eV   |
           -------------------------------------------------

------------------------------------------------------------------------
 * finished run on 2023/03/16 at 12:37:18.081     
------------------------------------------------------------------------
 total:
 * wall-time:     0 d,  0 h,  0 min,  0.129 sec
 *  cpu-time:     0 d,  0 h,  0 min,  0.173 sec
 * ratio c/w:     1.341 speedup
 SCF:
 * wall-time:     0 d,  0 h,  0 min,  0.017 sec
 *  cpu-time:     0 d,  0 h,  0 min,  0.020 sec
 * ratio c/w:     1.218 speedup
 ANC optimizer:
 * wall-time:     0 d,  0 h,  0 min,  0.099 sec
 *  cpu-time:     0 d,  0 h,  0 min,  0.147 sec
 * ratio c/w:     1.488 speedup

